<?xml version="1.0"?>
<VTKFile type="UnstructuredGrid" version="0.1" byte_order="LittleEndian" compressor="vtkZLibDataCompressor">
<UnstructuredGrid>
<Piece NumberOfPoints="11576" NumberOfCells="22900">
<PointData>
<DataArray type="Float64" Name="displacement" NumberOfComponents="3" format="ascii" >
0.20386636358468255 -3.8755460671943154  0.
0.06608225347481932 -3.854199571274827  0.
-0.06892925901379532 -3.8336236009709  0.
-0.20245707702971238 -3.813926072105678  0.
-0.3351731931272628 -3.7950476922929073  0.
-0.46784791135258913 -3.7768994744111746  0.
-0.6009837383865775 -3.7593712587587658  0.
-0.7352359523589735 -3.742113661842768  0.
-0.8712708600884169 -3.724797664925872  0.
-1.0100379061271907 -3.7066172622249796  0.
0.22297744016175636 -3.733332337179435  0.
0.0853694430946784 -3.7127989931639265  0.
-0.04981169578496054 -3.6931193666503828  0.
-0.1833278188475766 -3.6741016319854505  0.
-0.31591221558832844 -3.6556160659989434  0.
-0.44832203729931835 -3.6375531297895636  0.
-0.5811226489582966 -3.61973005746773  0.
-0.7150108675423098 -3.6018853572775638  0.
-0.8506826667281946 -3.583701646979593  0.
-0.9888549133107704 -3.5649323848842718  0.
0.24076969352845864 -3.5928729391818726  0.
0.10402337244003172 -3.572341538344725  0.
-0.03081399136491311 -3.5527772587292623  0.
-0.16410181612679794 -3.533925410404852  0.
-0.296494111497775 -3.51559529686785  0.
-0.4286344849044563 -3.4975758514095974  0.
-0.5611819218107883 -3.47974192365901  0.
-0.6947812002677587 -3.461850320045223  0.
-0.8300822376933211 -3.4437393304723156  0.
-0.9675370395799594 -3.4254432045632446  0.
0.25767610163200927 -3.4532122307208533  0.
0.12185056956265039 -3.4324872167674525  0.
-0.012318997009309853 -3.412785722834829  0.
-0.1451440555449579 -3.393889583314551  0.
-0.2771328115103495 -3.375588728884078  0.
-0.4089265900281712 -3.3576741156729226  0.
-0.5411027751999878 -3.339998778221521  0.
-0.6743197919606786 -3.32237027266242  0.
-0.8091213408695762 -3.3047191893687384  0.
-0.9458818207135119 -3.2870598132565285  0.
0.2736751474205374 -3.313956713789149  0.
0.1388506270723346 -3.293096318501859  0.
0.005502168385283394 -3.2732778919312855  0.
-0.12662641263595134 -3.2543285143692433  0.
-0.2580261560386897 -3.236046586342089  0.
-0.3892531007075316 -3.2182812980399897  0.
-0.5209012293335931 -3.2008751905346786  0.
-0.6535655406030536 -3.183627367743201  0.
-0.7877035506647613 -3.1665225457792308  0.
-0.9237416833577874 -3.149485335056529  0.
0.2888640293766232 -3.1753553911261543  0.
0.15497604929149475 -3.1543019995654396  0.
0.02264161620572823 -3.1343682255368557  0.
-0.10860944310025651 -3.1153865378883565  0.
-0.2392122990317368 -3.0971982026545413  0.
-0.3697081313337717 -3.079630399416297  0.
-0.500633854383317 -3.062545070418619  0.
-0.6325331147317037 -3.0457586255754907  0.
-0.7658854151401469 -3.0292328884715873  0.
-0.901184535655262 -3.0128510011582033  0.
0.30304056972907417 -3.0372977878798495  0.
0.17032378050747138 -3.016198884944057  0.
0.03903724281808556 -2.9961778904957432  0.
-0.09113639020808047 -2.9772701996583555  0.
-0.2207665326164887 -2.959215100895  0.
-0.3503176868190765 -2.941889069399208  0.
-0.48032383254163313 -2.9251381177893596  0.
-0.6112743483252051 -2.9088223752198816  0.
-0.7437495089914625 -2.8929353170436856  0.
-0.8780946514484022 -2.8771831703788693  0.
0.31625504211526406 -2.9002383758190664  0.
0.1847333989473526 -2.8789239070492236  0.
0.05472701176139513 -2.858977756765626  0.
-0.07425908168759847 -2.840142805508341  0.
-0.2027220670947262 -2.8222539110152747  0.
-0.33114921245926904 -2.805212340472573  0.
-0.46004467745972855 -2.788856839249837  0.
-0.5899033406612268 -2.7730823802764375  0.
-0.7212779633093477 -2.7577523749100483  0.
-0.8546828881138934 -2.742804711748094  0.
0.32832148518164733 -2.763922253786668  0.
0.19826161551444832 -2.7427469062152166  0.
0.06965303193091302 -2.722799953209192  0.
-0.05796560676395633 -2.7040808163005443  0.
-0.18510289725507606 -2.686451932431119  0.
-0.31224732204554195 -2.669743737588137  0.
-0.439868258161093 -2.6538193240068035  0.
-0.5684773661429214 -2.638602505385311  0.
-0.6986160301727323 -2.623940410440161  0.
-0.8307079287845242 -2.609634386284975  0.
0.33936605908080864 -2.6290434924348247  0.
0.21086455882026955 -2.6077452016348843  0.
0.08374498862811382 -2.5878893179834495  0.
-0.04233618612437748 -2.569384058688288  0.
-0.1679492682024124 -2.55197620908278  0.
-0.2936506810422571 -2.535629044419766  0.
-0.41983335676024236 -2.5202349807973787  0.
-0.5469765702943408 -2.50554054609363  0.
-0.6757454289101654 -2.4915389513139026  0.
-0.8065523007765749 -2.478137291987392  0.
0.3490956678497753 -2.4952518514213966  0.
0.22242709858963758 -2.4741813413885168  0.
0.09699993659702902 -2.4544539712900506  0.
-0.02739251851245782 -2.436103633964143  0.
-0.15136116177397313 -2.4190471691080253  0.
-0.2753889862576599 -2.4031013519952173  0.
-0.39993645008620043 -2.3881744727699625  0.
-0.5255370166308124 -2.3741514603132865  0.
-0.6527601035227691 -2.360859874913166  0.
-0.7818349785400185 -2.3481641902763304  0.
0.3577421526056508 -2.363415023713522  0.
0.23284753398544414 -2.3420857433195454  0.
0.10939865577211262 -2.3225290277591957  0.
-0.013166851447797123 -2.3044612607140613  0.
-0.13528924273844117 -2.2876884032547196  0.
-0.257525659909303 -2.272186994077345  0.
-0.3803029268244543 -2.2578506823720077  0.
-0.5041317206750943 -2.2444226076738856  0.
-0.6295511597188704 -2.2319701686480102  0.
-0.7571477426747975 -2.2203241295000327  0.
0.36499663930962256 -2.232775111740311  0.
0.24228484203296724 -2.211822479039612  0.
0.120807054458995 -2.192416161671356  0.
0.0002821687830068862 -2.1745779610677065  0.
-0.1198462826528137 -2.1582239830538974  0.
-0.24008941918508284 -2.143199211251619  0.
-0.3608998519713669 -2.129404215167966  0.
-0.4828057084320374 -2.116696334666565  0.
-0.6063848139804328 -2.105049631326398  0.
-0.7319063946999379 -2.0941768086366346  0.
0.3711070846795197 -2.104412659553964  0.
0.2504491637712857 -2.0833853310036394  0.
0.1312633503033214 -2.0642088474317495  0.
0.012931830858420017 -2.0467259621912848  0.
-0.10504567219325986 -2.030793463737832  0.
-0.2231213756459671 -2.016243776452923  0.
-0.34182483154942184 -2.003052935872075  0.
-0.46161737810816905 -1.9910957294584855  0.
-0.5830054376953964 -1.9802102835770667  0.
-0.7067119661991486 -1.9703978881772166  0.
0.37564901459663363 -1.9776645788790042  0.
0.25758370224260557 -1.9569893367187419  0.
0.14072925294391667 -1.9381361693387535  0.
0.024730009000609923 -1.920958273491192  0.
-0.09089233498537358 -1.9054303898527045  0.
-0.20665861753853132 -1.8914460528912802  0.
-0.3230475038540004 -1.8789095585767035  0.
-0.4405893863743182 -1.8676907884675282  0.
-0.5597410545629494 -1.8576173717034772  0.
-0.6809740900377892 -1.8487136954493186  0.
0.3790864219317333 -1.8536963699194735  0.
0.2634247430782182 -1.832990626610104  0.
0.14914339788950154 -1.8142984437832648  0.
0.035652546443585315 -1.7974805059604537  0.
-0.07744958118891015 -1.7824188210420586  0.
-0.19073118708806377 -1.7690105059697971  0.
-0.30463074213654207 -1.7571302232433843  0.
-0.4197227936756685 -1.7466651206138386  0.
-0.5365177073380994 -1.7376600772461468  0.
-0.6555271481743156 -1.7298270415104013  0.
0.3808963750621476 -1.7315924702950884  0.
0.2680052265751874 -1.7113179146321624  0.
0.15640873757654616 -1.6930002549805314  0.
0.04567104838647225 -1.6765438763338665  0.
-0.06475035624567468 -1.661932540506174  0.
-0.17536009222618373 -1.649087552078367  0.
-0.2866275765208463 -1.6379032433358696  0.
-0.3990748362604518 -1.6283132636853062  0.
-0.5131903388025177 -1.6201410509452474  0.
-0.6295695736952264 -1.613230975393029  0.
0.38145586999703407 -1.6125729627769323  0.
0.2713761177112684 -1.592349677512159  0.
0.1625758119128131 -1.5742053599500099  0.
0.05473092889184782 -1.5582664835485387  0.
-0.05285544993745182 -1.5441512278255531  0.
-0.16059810108225922 -1.531912725889911  0.
-0.26904259379033846 -1.5214440196933152  0.
-0.3786104193510809 -1.5125905797492254  0.
-0.4900483835561359 -1.5053988979539394  0.
-0.6038308997395555 -1.499673076044287  0.
0.380232109135431 -1.4958206492154333  0.
0.27334679008654916 -1.4760469022103062  0.
0.16771217069284786 -1.4583995452844025  0.
0.0628202651172317 -1.4428095134186492  0.
-0.04171974962810008 -1.4292063215070667  0.
-0.14646868995714335 -1.4175928411070888  0.
-0.25191594272696316 -1.4078794089536963  0.
-0.3585769925814649 -1.3999003740338203  0.
-0.46695262854534975 -1.393590203243073  0.
-0.5775348921584949 -1.3888779235088824  0.
0.37783700674653775 -1.382613263284127  0.
0.27406583061894263 -1.3627895255369504  0.
0.17160293327300244 -1.3455368597250523  0.
0.06994075933992738 -1.330383273971515  0.
-0.03139970004900919 -1.3173015281591278  0.
-0.13300226280175895 -1.306324425275547  0.
-0.23526875164585764 -1.2973350703726805  0.
-0.3387661395946996 -1.2902396074394349  0.
-0.4440377181287673 -1.2848958655314329  0.
-0.551674228186766 -1.281495676869391  0.
0.37380903012401073 -1.2718660300389188  0.
0.273500579391858 -1.2526857744730582  0.
0.17434627880943734 -1.2357059957826475  0.
0.07605679863936105 -1.2211495787614326  0.
-0.02196057906099594 -1.2086288305477175  0.
-0.12020842672278699 -1.1982855924182618  0.
-0.2191502224497731 -1.1900289203476175  0.
-0.3192677759195782 -1.1837018039209108  0.
-0.4212479929580349 -1.179354327808607  0.
-0.5254678737898208 -1.1768796778241217  0.
0.3685020122238303 -1.165138683377406  0.
0.2715204990890275 -1.1460675964498523  0.
0.1758640584989637 -1.1294824401463976  0.
0.08111691284986729 -1.1152255472706567  0.
-0.013357559409720525 -1.1033261568293735  0.
-0.10807257811343395 -1.0936283670768885  0.
-0.2034552044161652 -1.0861141268420762  0.
-0.30011817024357745 -1.0807717525665381  0.
-0.39864627711516226 -1.0774632779382347  0.
-0.49951905974132627 -1.0760572478196435  0.
0.3609824487481527 -1.061487721371986  0.
0.268097396476714 -1.042873693873292  0.
0.17626903485508816 -1.0266775505678867  0.
0.08511519719504058 -1.0128813347542622  0.
-0.005608351843010322 -1.0014753179212401  0.
-0.09664009116285707 -0.992435006442324  0.
-0.18833304291425537 -0.9857663392217582  0.
-0.28133489879488427 -0.9812510841459327  0.
-0.37604725002788536 -0.978978244556352  0.
-0.47304964146004796 -0.9789152346737849  0.
0.3524908331538094 -0.9620509120750492  0.
0.2632782803711966 -0.9435106237153498  0.
0.17526822523889574 -0.9275549256294452  0.
0.08809102873244624 -0.9142341446213798  0.
0.0012277696302283622 -0.9034274796483547  0.
-0.08590638089311417 -0.8950591536949832  0.
-0.17370567344548626 -0.8891207039095401  0.
-0.262813395459608 -0.8855024831440658  0.
-0.35377418597118104 -0.8843294314654649  0.
-0.44705849106656836 -0.8854881103353328  0.
0.34209808196842506 -0.8658891425592417  0.
0.2569932739860111 -0.8479382641653332  0.
0.17302572081871917 -0.8323948962054594  0.
0.0900015198797339 -0.8195817387769309  0.
0.007162471193534309 -0.8093456553891434  0.
-0.07587910520087002 -0.8015851001925695  0.
-0.15966180355251036 -0.7963934189623734  0.
-0.24462324735940782 -0.7937083040205394  0.
-0.3315122391493121 -0.7934813548138413  0.
-0.42063052586632965 -0.7955828501369429  0.
0.33067085316593897 -0.7742750115483881  0.
0.2494188946061057 -0.7564612542142716  0.
0.16967918209876126 -0.7414121489806109  0.
0.09079929774359044 -0.7289984460535137  0.
0.012234912130336449 -0.7192778538926929  0.
-0.0665758833404888 -0.7122143639609536  0.
-0.14609399770972203 -0.7078105729125509  0.
-0.22687909126721184 -0.7060038632528652  0.
-0.30953490747946694 -0.7068019066554858  0.
-0.3947362615081392 -0.7099484034461089  0.
0.3168538458841759 -0.6866950353604044  0.
0.24048581113320183 -0.669403829807761  0.
0.1650572262063606 -0.6545800208696847  0.
0.09055817958183314 -0.6426637556953495  0.
0.016418231179472748 -0.6334930136663519  0.
-0.05798728158845469 -0.6270717057252712  0.
-0.13306692658999608 -0.6233963979851077  0.
-0.2094124116536297 -0.6224100226449862  0.
-0.2877365447634438 -0.6242116734504706  0.
-0.3680343005961169 -0.6285918674969015  0.
0.3021321911770269 -0.6041407425936485  0.
0.22991794186554734 -0.5867896414659143  0.
0.15919769366300654 -0.5724028018003176  0.
0.08929861191465069 -0.5608899220247384  0.
0.01969101205803564 -0.5521781891914193  0.
-0.05008251566951946 -0.5463576502326937  0.
-0.12061012391568621 -0.5434215850266323  0.
-0.1923479146573989 -0.5433481697901931  0.
-0.2658392250070562 -0.5460526999773525  0.
-0.34198002629551144 -0.5517057495217796  0.
0.28538578327605063 -0.5257419888431883  0.
0.2182924827928143 -0.5088870836697258  0.
0.15207758193975376 -0.49489547999913663  0.
0.08692954042633907 -0.4837586764352713  0.
0.022091565344284105 -0.4755533859104631  0.
-0.042912232559794976 -0.47033477572272653  0.
-0.10859966828761619 -0.468097744518565  0.
-0.17552038816901122 -0.4688659194354579  0.
-0.24446923286899203 -0.47249664966698074  0.
-0.31538443669624266 -0.47918333047647793  0.
0.26776816382805857 -0.4526073698575998  0.
0.20493165375899736 -0.4359440079626985  0.
0.14393810438262647 -0.4222932613299287  0.
0.08353338591885136 -0.41144334972430063  0.
0.023662492627367686 -0.4037133479984204  0.
-0.03641394553481954 -0.39904697594766525  0.
-0.09712244944751877 -0.3974943764896057  0.
-0.1592083014429252 -0.39909266950141087  0.
-0.2227960858107707 -0.4037064810931051  0.
-0.28929512262030527 -0.4113708534761458  0.
0.24769974185781754 -0.38448734028929726  0.
0.19049859480562753 -0.3680772998377634  0.
0.1344774188917894 -0.35473922730245583  0.
0.07918840060769551 -0.34420167578970573  0.
0.024380349910426976 -0.3368587762047465  0.
-0.03057776451206941 -0.3327359384779456  0.
-0.08615255994665597 -0.33184300105019254  0.
-0.14307157205981655 -0.33426416577570656  0.
-0.2015276356700318 -0.3397642755328794  0.
-0.26231242129603 -0.3485731517448198  0.
0.22697682602278407 -0.32204034571811196  0.
0.17470083019452187 -0.3055529564697333  0.
0.12380103420453159 -0.29222582710536715  0.
0.07383310724782344 -0.2821402365747375  0.
0.02427549682747345 -0.27521336331395835  0.
-0.025362190312413792 -0.2715852748774449  0.
-0.07562779996062853 -0.2712671660478799  0.
-0.1270569935361134 -0.2743043785275929  0.
-0.18032456206589328 -0.2808113028423419  0.
-0.23598359744702288 -0.2908610407649887  0.
0.20432107362036792 -0.26446128040967676  0.
0.1576615134635759 -0.24851221375743385  0.
0.11207582553452759 -0.23536658685777545  0.
0.06742861623815367 -0.225424253393025  0.
0.023367735982260544 -0.21885529985097268  0.
-0.020718485313073676 -0.21567401781834403  0.
-0.06539995986127141 -0.21596361556732516  0.
-0.11134487611101572 -0.2197733128542887  0.
-0.15912464834116832 -0.2271340065333651  0.
-0.2088491027846302 -0.23763422627404723  0.
0.18067424583324967 -0.21362355006913405  0.
0.13911608991133967 -0.19714064525935626  0.
0.09918893602072094 -0.18404570267813194  0.
0.06008274221347077 -0.17433304849602338  0.
0.021727813258798762 -0.1679956438920416  0.
-0.016620389070097264 -0.16523383971470756  0.
-0.05553380533898025 -0.16606640304758377  0.
-0.09577209060587182 -0.17055463498756143  0.
-0.1375976297159637 -0.17881711253277813  0.
-0.1820344833668849 -0.19094599048027155  0.
0.1553257100460312 -0.1677639187399677  0.
0.11956974955824744 -0.1516580023064222  0.
0.08504652863834605 -0.13869596896930175  0.
0.05181806369650663 -0.12890990745186795  0.
0.019342895330231497 -0.1228191704061512  0.
-0.01301848995210861 -0.12042847625064394  0.
-0.04595362004407142 -0.12181807190903857  0.
-0.08009273518417884 -0.12707016940281504  0.
-0.11632672847803893 -0.13610766263361304  0.
-0.15460601385631106 -0.14895592034588187  0.
0.1292756965653429 -0.12893124921437207  0.
0.09868107153064026 -0.11242354155136598  0.
0.06982417385611212 -0.09913070815866697  0.
0.042672229814456474 -0.08955981892226139  0.
0.016280861090957624 -0.08372408137376362  0.
-0.009861057027605202 -0.08163041534421962  0.
-0.03658932203417172 -0.08347786855624281  0.
-0.06452269348252793 -0.08923433874516518  0.
-0.09456521299246286 -0.09918244804078605  0.
-0.1273770609377638 -0.11335536965711539  0.
0.10183280035204728 -0.09439434910936949  0.
0.07666159841439983 -0.07880417860538005  0.
0.0537315738404993 -0.06574874798154427  0.
0.032730227414916456 -0.05630312251483854  0.
0.012693240070170109 -0.050718955461650325  0.
-0.007069542640656547 -0.04899252404123801  0.
-0.02731957315082998 -0.05125370113890456  0.
-0.04892209195435444 -0.05767058006091362  0.
-0.0727394062802175 -0.06806410708659102  0.
-0.09912474448591252 -0.08269581036862891  0.
0.07344777587640311 -0.06788599058232468  0.
0.053699330775811224 -0.05115911811302104  0.
0.03703192887952955 -0.03826984100802017  0.
0.02241856211974262 -0.02945294489083472  0.
0.008776200853239805 -0.024504187233758287  0.
-0.0046276290384506145 -0.02313267253152704  0.
-0.018386318257324046 -0.025437536929633946  0.
-0.03328279276734046 -0.03181836580956145  0.
-0.050530084861015984 -0.04280356308694664  0.
-0.07118469415736732 -0.05834941378433844  0.
0.043954111854225715 -0.044260358974469026  0.
0.030247792812697915 -0.027897082893030875  0.
0.02050668464135399 -0.016878385036362416  0.
0.012452607842936256 -0.010051528240739118  0.
0.0048705656936545395 -0.006246651835221364  0.
-0.0025442781019512158 -0.005283928311192316  0.
-0.010181471749435322 -0.007160929625997018  0.
-0.018352869623292047 -0.01232195355751828  0.
-0.02824697418599892 -0.02192780066896599  0.
-0.04258828597585907 -0.03790011928778944  0.
0.013267365505083475 -0.01968169215945271  0.
0.008990882878570554 -0.008560830396818143  0.
0.006059719178880802 -0.0031418935827455022  0.
0.0038291485384521406 -8.78526504564229e-05  0.
0.001461210688896903 0.001613058591483523  0.
-0.0008264252206040719 0.0020629525512277868  0.
-0.003180493911809308 0.0011836895197679302  0.
-0.005492469527880217 -0.001063810938983148  0.
-0.008351069641959979 -0.00567498291098193  0.
-0.012962670131401562 -0.01605461051381185  0.
0.0 0.0  0.
0.0 0.0  0.
-1.0871888127385239 -3.7330004406703905  0.
0.2702663799117171 -3.923481866172875  0.
0.1802673476700268 -3.8612597152499144  0.
0.1734570576666964 -3.8344532476191913  0.
0.18746334086447616 -3.8106615494175426  0.
0.2141443766898786 -3.803851225827453  0.
0.23787965392593585 -3.8180345171305055  0.
0.24479470539202675 -3.8448460110611937  0.
0.23070594298463432 -3.868722838775177  0.
0.042866610220063106 -3.840234651510939  0.
0.036136143775143785 -3.813918530864929  0.
0.04982244097507372 -3.790490677196486  0.
0.07599006264757853 -3.783696391348616  0.
0.099268587150197 -3.7975980088020638  0.
0.10601624530875986 -3.823959499684033  0.
0.09230067980336704 -3.847440816435678  0.
-0.0918219463613951 -3.8198942836975704  0.
-0.09852306742343989 -3.793914042110783  0.
-0.08506854277002382 -3.7707425439635314  0.
-0.059251472314792705 -3.763985688466383  0.
-0.03626058353477036 -3.77767971659081  0.
-0.02957907403058137 -3.8036954824801263  0.
-0.04305604271435689 -3.8269049042927055  0.
-0.22524025610817322 -3.8003647309380844  0.
-0.23187739824892892 -3.774616006655097  0.
-0.2185259745767466 -3.7516002998788225  0.
-0.192937475392593 -3.7448443074658226  0.
-0.17013934476014467 -3.7583990191308505  0.
-0.16352004435794287 -3.7841793858298987  0.
-0.17683085312243407 -3.8071863361739906  0.
-0.357859919644504 -3.781569214355271  0.
-0.36445609410696417 -3.7559225829662433  0.
-0.3511675336693463 -3.732984310697711  0.
-0.3256720273042064 -3.7261840517826212  0.
-0.3029404905657393 -3.7396694346748123  0.
-0.29633432020972145 -3.7653407773871006  0.
-0.3096358097699735 -3.7883103945348746  0.
-0.4905911308626988 -3.763483101395587  0.
-0.4971728164758459 -3.737798432605912  0.
-0.4838503571341853 -3.7148479911023844  0.
-0.45831161839420526 -3.7080521071743457  0.
-0.43559328054223356 -3.721511896735295  0.
-0.42900852880826823 -3.7471723944796604  0.
-0.44233157829655345 -3.7700946028818025  0.
-0.6237967081677168 -3.7458973807444607  0.
-0.6303794763890651 -3.7201652097873765  0.
-0.6169763439314034 -3.69712545848344  0.
-0.5913375673977088 -3.690306524328031  0.
-0.5685359649538057 -3.703786635462126  0.
-0.5619451034238907 -3.7295356547152094  0.
-0.5753282120063318 -3.752539092431037  0.
-0.7582812064407144 -3.728525302789685  0.
-0.7648870892013973 -3.7025311821927396  0.
-0.7513150698112696 -3.6793235836179803  0.
-0.7254265583766865 -3.672484183562942  0.
-0.7024266795913923 -3.686088650163114  0.
-0.6958296264145194 -3.7120281891283216  0.
-0.7093945482038578 -3.7352051682146428  0.
-0.8945930607875779 -3.7109826703571303  0.
-0.9012304542024074 -3.684624491716667  0.
-0.8874287749129114 -3.661160518134276  0.
-0.8611894472712099 -3.6542966864241153  0.
-0.8379097095846938 -3.6681149338217014  0.
-0.8312500816539679 -3.694400764059806  0.
-0.845021271014758 -3.717855600181081  0.
-1.0338299776361761 -3.692429732546528  0.
-1.0405958516761722 -3.665552175221268  0.
-1.0264153758466765 -3.641803983880433  0.
-0.9996331863829968 -3.6349507590209957  0.
-0.9759299428495314 -3.6490474544741356  0.
-0.9691927131652985 -3.6758125275240285  0.
-0.9833096319793513 -3.699625085187315  0.
0.19954757126638673 -3.719365839532076  0.
0.19273152551105202 -3.6929445552267257  0.
0.20649734759389107 -3.6694581320329314  0.
0.2328077174030261 -3.6627248741246348  0.
0.25624266599026374 -3.676665798229716  0.
0.2631403572275341 -3.7030885284492965  0.
0.24937678821328751 -3.7266225242047315  0.
0.06217414736399736 -3.698989719949857  0.
0.055447961618802825 -3.6727821052591656  0.
0.0690859021249533 -3.6494342429721134  0.
0.09515884029782871 -3.642665673590169  0.
0.11837024067646762 -3.6564636655162195  0.
0.125123104103042 -3.682688687544785  0.
0.11148216155181392 -3.7060445063452456  0.
-0.07278636312617995 -3.679445803079652  0.
-0.07944712963727849 -3.653460119532996  0.
-0.06597220157684323 -3.630272690112441  0.
-0.040150139160903105 -3.6234875675362024  0.
-0.017162246015972486 -3.637157397150962  0.
-0.010486253082644729 -3.6631572908072236  0.
-0.023988332056390615 -3.6863457601811085  0.
-0.20615902674847464 -3.6605345606380655  0.
-0.2127793636633838 -3.634696220415234  0.
-0.1994009306338769 -3.6115776075894117  0.
-0.17372516815797717 -3.604788184711582  0.
-0.15087287206841077 -3.6183854783255147  0.
-0.14425108325747596 -3.644238863832814  0.
-0.1576435454437449 -3.667334621971634  0.
-0.33867603290322895 -3.642108961799948  0.
-0.3452725485145608 -3.616345732066024  0.
-0.3319258589879258 -3.593316201741616  0.
-0.3063407934750785 -3.5865135959924137  0.
-0.28357112936209117 -3.600037724838796  0.
-0.27697870968868815 -3.625802871821842  0.
-0.290317894112852 -3.648837845968014  0.
-0.47109145264868296 -3.624062516811876  0.
-0.47767190635591467 -3.598309572302006  0.
-0.4643157772191993 -3.575276468696524  0.
-0.43872545491667236 -3.5684749980581136  0.
-0.4159671051973336 -3.5819779673983225  0.
-0.40938538563455645 -3.607727806176382  0.
-0.4227363893911572 -3.6307488484772166  0.
-0.6039745593158261 -3.606198020693991  0.
-0.6105830311741237 -3.5803633216010544  0.
-0.597139734156557 -3.557269077035403  0.
-0.5714391757425092 -3.5504460960949715  0.
-0.5485905404600938 -3.563997820865133  0.
-0.5420159051048216 -3.5898337323972696  0.
-0.5554358386561067 -3.612918776164449  0.
-0.7379871608369729 -3.5882695521256274  0.
-0.7446181165818638 -3.5622805494451897  0.
-0.7310668201630515 -3.539090218592315  0.
-0.7051984632595685 -3.5322714102879806  0.
-0.6822158172218682 -3.5458966580776208  0.
-0.6756035622919414 -3.571859172696858  0.
-0.6891360410304065 -3.5950601118099548  0.
-0.8739111330610551 -3.569954725785286  0.
-0.880579530168043 -3.5437461858486787  0.
-0.8668407475844597 -3.520409629990092  0.
-0.8407083687730798 -3.5135998140918123  0.
-0.8175107807808525 -3.5273456730619297  0.
-0.8108563050185773 -3.553523627409867  0.
-0.8245551242146041 -3.576866459888814  0.
-1.0123415209782494 -3.5510758916568896  0.
-1.019025349341676 -3.5246543321306123  0.
-1.0050667034534404 -3.501235102653537  0.
-0.9786650391677408 -3.494416931078008  0.
-0.95525055993972 -3.508253779388657  0.
-0.9485557199078472 -3.534629582703993  0.
-0.962449477205003 -3.558099666313988  0.
0.2175394838582242 -3.5790463887337896  0.
0.21070190631580496 -3.552851634895116  0.
0.22427971767861613 -3.5295463418816935  0.
0.25033855187514104 -3.522869090702783  0.
0.273573769271876 -3.536690052459616  0.
0.2804817233772688 -3.5628616126106656  0.
0.2669011964154685 -3.5861941793986265  0.
0.08096064468786598 -3.5586217874093156  0.
0.0742094468438397 -3.532567665241811  0.
0.08772552808171685 -3.509336993630436  0.
0.11363022358257818 -3.502588446297732  0.
0.13673113419150418 -3.5163206518267  0.
0.14351169569374053 -3.5423962676510894  0.
0.1299890350321949 -3.5656239854960536  0.
-0.05374076496669042 -3.5391468729896713  0.
-0.06041009618551864 -3.5132226041807404  0.
-0.04697864247541496 -3.4900836987886015  0.
-0.021230507555692595 -3.4833150662295784  0.
0.0017091213446188457 -3.4969421066026873  0.
0.008400457109892762 -3.5228756442182276  0.
-0.0050290126126972595 -3.5460222803595265  0.
-0.1869021378607203 -3.52037049852218  0.
-0.19353061864389362 -3.4945545317521938  0.
-0.1801687301656101 -3.471487379568535  0.
-0.15453981841399764 -3.464697460273772  0.
-0.1317203779106641 -3.478259975329146  0.
-0.12508579273907575 -3.5040791417010255  0.
-0.1384482577203361 -3.527150924540204  0.
-0.3192502487937928 -3.5020781260081297  0.
-0.32583388728472507 -3.4763163492542684  0.
-0.31249507740183435 -3.4532855467361854  0.
-0.2869239609987802 -3.4464777904351647  0.
-0.26416278192971365 -3.460002877001571  0.
-0.25757085367997673 -3.4857563624981664  0.
-0.2709000191560178 -3.5088071404407843  0.
-0.4513919328788381 -3.4840842911592707  0.
-0.4579680711869634 -3.4583279685090105  0.
-0.44461224373646313 -3.4353079201704526  0.
-0.4190364892719254 -3.4284931603966498  0.
-0.3962854080058722 -3.4420046016472647  0.
-0.3897141601507544 -3.4677477373900647  0.
-0.4030587320886702 -3.490774308726928  0.
-0.5840108006851611 -3.4662177471485243  0.
-0.5905947123011804 -3.4404041641822563  0.
-0.5771678395190004 -3.4173487812106567  0.
-0.5515057718141483 -3.4105330896718002  0.
-0.5286909212410651 -3.424063058088775  0.
-0.5221187314839827 -3.449857106849495  0.
-0.5355248198782023 -3.4729215628405767  0.
-0.71773714087087 -3.4482733378045434  0.
-0.7243356586073838 -3.422352316182629  0.
-0.71079819292005 -3.399227251554944  0.
-0.6849922120211881 -3.3924170496016375  0.
-0.662061406165819 -3.405993309357941  0.
-0.655469273679866 -3.4318943700871496  0.
-0.6689724684704643 -3.455034320474876  0.
-0.8532052567007853 -3.430100824858143  0.
-0.8598392350966869 -3.4040574787335998  0.
-0.8461568881996853 -3.380861991511869  0.
-0.8201526661340656 -3.374048326343123  0.
-0.7970781845913489 -3.38768517279693  0.
-0.7904544690084683 -3.4137168835928273  0.
-0.8041004335478785 -3.436925768066503  0.
-0.9908266430282585 -3.411748682952042  0.
-0.9974587192146044 -3.3855737942241633  0.
-0.9836184290115203 -3.362360323662499  0.
-0.9574343461037997 -3.355533936117743  0.
-0.9341930001180239 -3.369202189919212  0.
-0.9275530368425877 -3.395339625199654  0.
-0.9413518044491896 -3.418625271193933  0.
0.23454672649877134 -3.4394258257182053  0.
0.22769965342479043 -3.4133532279708154  0.
0.24116686019614042 -3.390136387146221  0.
0.26708169401059506 -3.383491534385424  0.
0.2902270689885807 -3.397223670845277  0.
0.297141371495927 -3.4233089768149076  0.
0.28367307592740176 -3.4465849783569253  0.
0.09886548033533823 -3.418831209100887  0.
0.09211102765884346 -3.392893838378231  0.
0.10550957518884775 -3.369754114619481  0.
0.13126582408704768 -3.3630488715120213  0.
0.15426632664989878 -3.376719938298035  0.
0.16105599726423586 -3.4026687725575933  0.
0.14765965660661234 -3.4258025939034913  0.
-0.03516025408954214 -3.399212244306695  0.
-0.04184255214919396 -3.3733949446120732  0.
-0.028507577448823443 -3.3503298676888456  0.
-0.0028769352691483613 -3.3435897568395427  0.
0.01998047637681888 -3.3571731998413195  0.
0.026683520017412705 -3.382995049333469  0.
0.013346801036790293 -3.4060653596696517  0.
-0.16788996012171095 -3.3803831278740124  0.
-0.1745131387991509 -3.354650101253622  0.
-0.16121464605320474 -3.3316406216965424  0.
-0.13567903656560612 -3.3248694001246673  0.
-0.11292691415366357 -3.338390394558572  0.
-0.10628848258575242 -3.3641235536665834  0.
-0.11958083875977599 -3.3871301739166597  0.
-0.2998389035784329 -3.3621243154884666  0.
-0.30641427706377694 -3.336432777329067  0.
-0.29312434607211174 -3.3134666636184025  0.
-0.2676341297581562 -3.3066761935214273  0.
-0.2449312755488756 -3.320150815961186  0.
-0.23834046887834168 -3.345828927362185  0.
-0.25162307263452616 -3.368805080804169  0.
-0.43162295298570785 -3.3442218010516163  0.
-0.438187076305015 -3.3185431199116135  0.
-0.4248740578211765 -3.2955822001283743  0.
-0.39936857405780873 -3.288777749334559  0.
-0.3766752164274507 -3.3022387521636936  0.
-0.3701124844203388 -3.3279065031461728  0.
-0.38340826066087813 -3.3508874617274818  0.
-0.5638581567571439 -3.326535221724644  0.
-0.5704138067977327 -3.3008170561852626  0.
-0.5570344818043665 -3.2778325133129487  0.
-0.5314573224079103 -3.2710235365748934  0.
-0.5087130286410989 -3.2844894921541803  0.
-0.5021589275927447 -3.3101978743194964  0.
-0.5155202370260451 -3.3331947262296486  0.
-0.6971791322373355 -3.3088946067324994  0.
-0.7037382491989418 -3.2831039811265637  0.
-0.6902580754375135 -3.2600942606538723  0.
-0.6645575556293355 -3.2532840983784372  0.
-0.6417526960290701 -3.2667646579138676  0.
-0.635186172174909 -3.2925321439152064  0.
-0.6486316011591965 -3.315561904364177  0.
-0.8321283060835243 -3.2911925349279114  0.
-0.8387034002738422 -3.2652978209770973  0.
-0.8250810736112257 -3.242224111129592  0.
-0.7992098948905951 -3.235400207640278  0.
-0.7762388655200965 -3.248927243410998  0.