<?xml version="1.0"?>
<VTKFile type="UnstructuredGrid" version="0.1" byte_order="LittleEndian" compressor="vtkZLibDataCompressor">
<UnstructuredGrid>
<Piece NumberOfPoints="11576" NumberOfCells="22900">
<PointData>
<DataArray type="Float64" Name="displacement" NumberOfComponents="3" format="ascii" >
0.20747004805331795 -1.962386877134508  0.
0.13639450124774355 -1.9563770593007925  0.
0.06678882469652972 -1.9505632939295532  0.
-0.001993945673685887 -1.9450932789877449  0.
-0.0703043245316127 -1.9399854776461523  0.
-0.1385377394815525 -1.9352479921950394  0.
-0.20695805647552362 -1.9308601258779006  0.
-0.27592793819991673 -1.9266886580755647  0.
-0.34580822654431703 -1.9226152112828603  0.
-0.41714465363269637 -1.9182949590655851  0.
0.21218866038778617 -1.8892303274061437  0.
0.14126189058687227 -1.8836271958763136  0.
0.07163396433682213 -1.878284760968796  0.
0.002904631095378806 -1.8731649302194564  0.
-0.06531078563092206 -1.8682514113983817  0.
-0.1334038700887581 -1.8635419284036616  0.
-0.2016751398207616 -1.8589818804353628  0.
-0.27050150544099544 -1.8544873071713204  0.
-0.3402595460775306 -1.8499445908257137  0.
-0.41133557102222357 -1.8452821114730058  0.
0.2163637373961775 -1.8170685655200278  0.
0.14587608874489313 -1.8114046794832128  0.
0.07643230264271435 -1.8061016127819938  0.
0.007831111910201643 -1.8010517632476772  0.
-0.060274777889842576 -1.796206217010767  0.
-0.12822769712822432 -1.7915021499813233  0.
-0.19637307426904416 -1.7869201950858031  0.
-0.26505668834330964 -1.7823821834889584  0.
-0.3346222238693892 -1.7778526761879418  0.
-0.4052973715524724 -1.7733802197901543  0.
0.22014489230313464 -1.7453733388978645  0.
0.150113592918923 -1.7395488080200403  0.
0.08100087058173838 -1.7341303399678898  0.
0.012633042033435522 -1.729028689561606  0.
-0.055265177736366515 -1.7241719602966545  0.
-0.12303524749394738 -1.7194995456325628  0.
-0.1909816794998974 -1.714974453545552  0.
-0.25945437522481474 -1.7105457716133055  0.
-0.32873347396328895 -1.7062169279093669  0.
-0.39900962214765634 -1.7020228570569371  0.
0.22349679692387697 -1.673948584856839  0.
0.15396456063417888 -1.667985423058054  0.
0.08526247952238007 -1.6624519104351076  0.
0.017245692376596827 -1.6572783708687544  0.
-0.05035136967174468 -1.6523928536913473  0.
-0.1178232560634961 -1.6477593628103864  0.
-0.1854830736714598 -1.6433375125991962  0.
-0.25364896301613404 -1.63906722403111  0.
-0.32255256762088796 -1.634972434539987  0.
-0.39241567363474195 -1.6310454527856337  0.
0.22648116677319372 -1.6029088527996986  0.
0.15741553635924144 -1.5967837426783378  0.
0.08922141277432942 -1.5911238461279968  0.
0.021649142391504263 -1.5858759465387433  0.
-0.0455365765280441 -1.5809876709085502  0.
-0.11262304463449441 -1.5764070831711452  0.
-0.17989424260179288 -1.5721026311997606  0.
-0.2476391824304976 -1.5680180650048319  0.
-0.3161025183856229 -1.5641667714323424  0.
-0.385544740744608 -1.560522881286808  0.
0.22899241927676273 -1.5322150059224102  0.
0.1605188906320665 -1.5259857863803363  0.
0.0928547028463677 -1.5202129476274675  0.
0.025834900903539782 -1.514931765254699  0.
-0.040846562742367296 -1.5100486420667603  0.
-0.10743642074985535 -1.5055319672731757  0.
-0.17421803238814224 -1.501338732778537  0.
-0.24144735830500733 -1.4974311098001882  0.
-0.3094219534812894 -1.4938480254107025  0.
-0.37833268275820314 -1.4904588683577584  0.
0.23108412623236857 -1.462088279388453  0.
0.16320702958732544 -1.4556708362027546  0.
0.0961990641488378 -1.4498505778505435  0.
0.02978950339432615 -1.4445305254868945  0.
-0.03628728414230401 -1.4396588384094542  0.
-0.10228690037970642 -1.4352154744277266  0.
-0.16847649499780837 -1.431153714430895  0.
-0.23511462974623493 -1.4274526993139707  0.
-0.30249075428414574 -1.4240794799523817  0.
-0.3708691196649516 -1.421038272405811  0.
0.23264671937817286 -1.3924169001226003  0.
0.16552379052114022 -1.385970314272392  0.
0.09922858375305903 -1.3800596923613322  0.
0.033523385262209895 -1.3747119663567384  0.
-0.03186168096750084 -1.3698886086853346  0.
-0.09718667355896944 -1.3655351786221788  0.
-0.16269970494709918 -1.3616137308190233  0.
-0.22866595747613608 -1.3581168531385877  0.
-0.29536858578964403 -1.355003197451829  0.
-0.36303307773575305 -1.3521986970129833  0.
0.2337887126982563 -1.3235354512669169  0.
0.16745301041925748 -1.316925720706782  0.
0.10192432564048287 -1.310966308449391  0.
0.03701593006897691 -1.305630950332624  0.
-0.027578791224116956 -1.3008264524185416  0.
-0.09214631110131868 -1.2965678465179071  0.
-0.15689356988422634 -1.2928265423683059  0.
-0.22207969954966755 -1.2895039816003286  0.
-0.28804312630654555 -1.2866385812434067  0.
-0.35499378604951304 -1.284211494926019  0.
0.2343398335948471 -1.2552917274942987  0.
0.16895454514815772 -1.2486770014192343  0.
0.10429738347086913 -1.2426759243366219  0.
0.0402591417978812 -1.2373152387460509  0.
-0.0234749893499669 -1.2325891385533492  0.
-0.08716555471727506 -1.228434776770472  0.
-0.15105236972143227 -1.2248317511222286  0.
-0.21541057415080628 -1.2217547992560385  0.
-0.28054198569048744 -1.2191527729582907  0.
-0.3465628648421424 -1.2169689795137573  0.
0.23447225874030786 -1.188101394094613  0.
0.16997804651187678 -1.1812452239330158  0.
0.10634006730979624 -1.175208124008642  0.
0.0432522414448748 -1.169879902482666  0.
-0.019524853248941133 -1.1651877272583342  0.
-0.0822762109891722 -1.1611518924167825  0.
-0.14522514319935628 -1.1577430208166029  0.
-0.20864639770766158 -1.1548599256358008  0.
-0.2728053369720388 -1.152573317111174  0.
-0.33800905757152794 -1.1508310123779857  0.
0.23398269355529658 -1.1216077581727273  0.
0.17062547668488073 -1.1148023689879731  0.
0.10800384311806749 -1.108721586748051  0.
0.04597090108429532 -1.1033887691198385  0.
-0.015764538586184908 -1.0987920546151166  0.
-0.0774722097715867 -1.094880801326151  0.
-0.1393879712272831 -1.0916312777608084  0.
-0.2017871632683431 -1.0890000727145868  0.
-0.2649615926522842 -1.0870097797777891  0.
-0.3290579332337209 -1.0855261112206367  0.
0.23305911439632332 -1.0563288664608461  0.
0.1707501544212875 -1.0493611656405346  0.
0.10931254443021546 -1.0432609176592234  0.
0.04841946729116115 -1.0379796302257804  0.
-0.012194332987368316 -1.033472422415593  0.
-0.07277057176788224 -1.0296798553222108  0.
-0.13357920135092205 -1.0266147513547519  0.
-0.1948581536777483 -1.0242412864725652  0.
-0.2568719009395726 -1.0225056779811597  0.
-0.319983028748916 -1.021449526818456  0.
0.23144744696943642 -0.9919636609241357  0.
0.17048604261255057 -0.9850158543171059  0.
0.11025875615045955 -0.9789421740490795  0.
0.05057439287938231 -0.973682954684626  0.
-0.008815798007088491 -0.9692482966325182  0.
-0.06818340553140205 -0.9656114752884082  0.
-0.12777609726194644 -0.9627487219872134  0.
-0.18786855098371838 -0.9606211264014333  0.
-0.24869747057556213 -0.9591644629518159  0.
-0.3104956260843659 -0.9584162901851736  0.
0.2294523402097112 -0.9290595029520903  0.
0.16971954825183433 -0.9219571702069628  0.
0.11081737218271823 -0.9158193083893603  0.
0.05243374529913769 -0.9106028149327313  0.
-0.005645866612502927 -0.9062652003467612  0.
-0.06371525862227946 -0.9027829669496836  0.
-0.12200394634440256 -0.9001168595492434  0.
-0.18080861766977 -0.8982332878636657  0.
-0.24037945692763962 -0.8971848426323131  0.
-0.30098583994643086 -0.8968497154467886  0.
0.22675314890388223 -0.8671949362077224  0.
0.16846268862774982 -0.8601480223429966  0.
0.11095426291193296 -0.8540486121359048  0.
0.053995882823306376 -0.8488655255182139  0.
-0.0026917560351109983 -0.8446121174630921  0.
-0.05936981778907494 -0.8412745304164033  0.
-0.11628169644692951 -0.838816666641261  0.
-0.1736932913184299 -0.837233553591302  0.
-0.23185534821593223 -0.8364556317911992  0.
-0.29107200680651363 -0.836430964881991  0.
0.2236049945303646 -0.8069467057782458  0.
0.1667594625507933 -0.7997716500408698  0.
0.1106911383442171 -0.7936097713504289  0.
0.05523752307625659 -0.7885340814066195  0.
2.29625441084875e-05 -0.7843840312069826  0.
-0.05516325539821949 -0.7812044374794209  0.
-0.1106017800126808 -0.7789615690920435  0.
-0.16650923345207075 -0.7775968690716893  0.
-0.22325975069211335 -0.7771691562987542  0.
-0.2810951406522047 -0.7776000876410397  0.
0.21969458757840943 -0.7479416243798316  0.
0.16450900852133085 -0.7408165326699571  0.
0.11008534647882716 -0.7347382498863381  0.
0.056159385620283366 -0.7296887750228436  0.
0.0025236946325937304 -0.7256438885735494  0.
-0.051105715247539284 -0.7226274301523822  0.
-0.10497974615945026 -0.7206164588221724  0.
-0.15936633885336168 -0.7195447663855751  0.
-0.21451474355236566 -0.7193996948499164  0.
-0.27066891799743265 -0.7201622335509588  0.
0.21539159545325312 -0.6907757469295571  0.
0.1618037761400653 -0.6834632245076435  0.
0.10902441799465967 -0.6774227290696749  0.
0.0567695699888727 -0.6724321275477652  0.
0.004792087105538872 -0.6684952694099286  0.
-0.04720293275655947 -0.6656479428239971  0.
-0.09942375862343499 -0.6638472300363173  0.
-0.15215909317563048 -0.6630639769301244  0.
-0.20568316630033648 -0.6632459347582993  0.
-0.26028014319594706 -0.6645183435998501  0.
0.21041066959404192 -0.6349326317760484  0.
0.15862643139353277 -0.6277658445626836  0.
0.10755660824037253 -0.6216999433022918  0.
0.05705539957060516 -0.6168491801335108  0.
0.006800181103330823 -0.6130391442898107  0.
-0.0434565567981758 -0.6103547231261507  0.
-0.09395204693274553 -0.6087641298237239  0.
-0.1449346295954364 -0.6082042183794952  0.
-0.19674213518966666 -0.6087262270518229  0.
-0.24955565453430933 -0.6102845124383328  0.
0.2049964545813109 -0.5811671280435651  0.
0.15493020544662345 -0.5738928883837431  0.
0.10566862646386645 -0.567860272363846  0.
0.0569911954195084 -0.5629971902686076  0.
0.008572963709178198 -0.5593385100195073  0.
-0.03985473250962247 -0.5568203232737733  0.
-0.08850738753592591 -0.5554419626457462  0.
-0.1376900405962356 -0.5552204822559837  0.
-0.18769744197424007 -0.5561014399639946  0.
-0.238770683720223 -0.5580329218419023  0.
0.19863273335808027 -0.5290505204141656  0.
0.15068597675877676 -0.5218104050261513  0.
0.10340283998859448 -0.5157993428939588  0.
0.05658474083851654 -0.5110104698041001  0.
0.01009969187764335 -0.507436927454889  0.
-0.03642325561901734 -0.5050901858311618  0.
-0.08316182524004342 -0.5039790258309986  0.
-0.13045162420261847 -0.5040100798179886  0.
-0.1784774573991046 -0.5052375315736545  0.
-0.22752255015422573 -0.5076568999236305  0.
0.1919907219846444 -0.4790838465401452  0.
0.1459362558377531 -0.47171855116691686  0.
0.10062037879477483 -0.4656617633628625  0.
0.05585355125796955 -0.4609429707265988  0.
0.011365052737271418 -0.4575119719692586  0.
-0.033145641530545125 -0.45534278866068617  0.
-0.07787569667359781 -0.45443701286919014  0.
-0.12315107199538447 -0.45475450993185845  0.
-0.1692298575711505 -0.45637190094158636  0.
-0.21634483025795548 -0.4592388952618103  0.
0.18455694901643727 -0.4308424990084812  0.
0.14063475811312215 -0.4235941165156357  0.
0.09740806513920908 -0.4175769753979754  0.
0.05478438437123548 -0.41294583145211644  0.
0.012372410415065102 -0.4096420939699306  0.
-0.03003119477755726 -0.4076219803314975  0.
-0.07269156018707601 -0.4069305751358228  0.
-0.11582423116637726 -0.4075502965795887  0.
-0.1598041008797984 -0.4094719527080548  0.
-0.2047697430335351 -0.412626001459297  0.
0.17681302542430766 -0.38491607544157025  0.
0.1348746092937435 -0.37757614581307386  0.
0.09383745901341847 -0.3716412870154472  0.
0.05335013600618279 -0.36705460654675365  0.
0.013137748334038838 -0.3638511695396855  0.
-0.027085624576030934 -0.3620216771426216  0.
-0.06754936782033148 -0.3615708302233848  0.
-0.10853336816388695 -0.3624721652114988  0.
-0.1503323796285644 -0.3647381514187546  0.
-0.1932812270185845 -0.368250707048486  0.
0.16803900538589353 -0.34109939657165106  0.
0.128634178717857 -0.33382854952518465  0.
0.08981478771568302 -0.32784746106314383  0.
0.05158716600585659 -0.32335299492576614  0.
0.0136508635681841 -0.32027205495068917  0.
-0.024306579914644282 -0.3186096923277278  0.
-0.062490376443852705 -0.3183701027032243  0.
-0.10119692460380768 -0.31952237884357343  0.
-0.14076958543776352 -0.3221315917650956  0.
-0.1811956960819689 -0.3260643115765378  0.
0.15902840803381962 -0.29981499825316577  0.
0.12176021063759822 -0.29236764837984885  0.
0.08537054182013136 -0.28643980300126975  0.
0.0495093202056558 -0.28199429221404504  0.
0.013902154726819032 -0.27899458792750365  0.
-0.021678738068081703 -0.27748618398062014  0.
-0.05752782239280937 -0.2774661142103963  0.
-0.09387115945923095 -0.27892359536379857  0.
-0.13096926259981848 -0.28181352275074095  0.
-0.16925902302880466 -0.2862366083853144  0.
0.14917263330775338 -0.2606819702025962  0.
0.11454852790976082 -0.2533018278277838  0.
0.0804820324773916 -0.2474257575056267  0.
0.04706564515226314 -0.24301886834773545  0.
0.013909371598084974 -0.2401300713281428  0.
-0.019226030186214736 -0.23877972178649526  0.
-0.05259865724938226 -0.23896448775266776  0.
-0.08647827237145693 -0.24069066491836913  0.
-0.1212549864370678 -0.24389339726722892  0.
-0.1568681315053976 -0.2486465609864602  0.
0.13907269629233443 -0.22418385618145598  0.
0.10664915217670515 -0.21676919976839543  0.
0.07527115793879051 -0.21090512215352722  0.
0.04429351287201978 -0.2065080241642641  0.
0.013684489351392076 -0.20371793326667456  0.
-0.01692876305604891 -0.20250972959872598  0.
-0.04775593936680342 -0.20289789609557232  0.
-0.07916938589773237 -0.20490367914926128  0.
-0.11120955157701935 -0.20843550086910023  0.
-0.14457677247028225 -0.21353131158037864  0.
0.12791052018536614 -0.19027198894922356  0.
0.09839300544001135 -0.18280357821811613  0.
0.06958069788160891 -0.17695868704143403  0.
0.04122920120295598 -0.17258283516528583  0.
0.0132164846741938 -0.16986123120207247  0.
-0.014778270695530922 -0.1687976744170095  0.
-0.0429884759303304 -0.16938713540092706  0.
-0.07176893054766836 -0.1716676986542454  0.
-0.10120126258217559 -0.17549751648477413  0.
-0.1316628708576928 -0.18098449376196843  0.
0.1166090622079083 -0.159166830562004  0.
0.0896267966645059 -0.1515408461457517  0.
0.06344859578351353 -0.14557326573373264  0.
0.03783478609164267 -0.14129798066268243  0.
0.012512275980866034 -0.1386656957443998  0.
-0.012766030245084043 -0.1377301143076737  0.
-0.03827261266687601 -0.13848568391513127  0.
-0.06426699246567934 -0.14094211592934308  0.
-0.0910690781284228 -0.14514737852320675  0.
-0.11892182022270466 -0.1511245881807892  0.
0.1044742339806862 -0.13054699731226482  0.
0.08040524063775564 -0.1230457882852032  0.
0.05696122073610843 -0.11704762643778097  0.
0.03408076698969612 -0.11273054093689619  0.
0.01157416028987928 -0.11016377591803948  0.
-0.0108720899117457 -0.10934237496319987  0.
-0.03353904249869793 -0.11029085419096828  0.
-0.05675321553379124 -0.11301967280200546  0.
-0.0807774468221759 -0.11752606212439184  0.
-0.10565504719897925 -0.12356579713237234  0.
0.09202441632019151 -0.10528381154054668  0.
0.07057986918040174 -0.0974077141175646  0.
0.050048832146229495 -0.09131962982326935  0.
0.030017394187664786 -0.08701528423911917  0.
0.010426619894627249 -0.08446290318519989  0.
-0.00909184536571818 -0.08375088212317772  0.
-0.028827826181405537 -0.08486984156569702  0.
-0.04915692516602759 -0.0878342031385242  0.
-0.07017588716086154 -0.0926759411906505  0.
-0.09238074339136246 -0.09942887802844873  0.
0.0788419508028161 -0.08254257647944704  0.
0.06039641856631917 -0.07472922023390806  0.
0.04265756505729823 -0.06861180729230106  0.
0.025636330272132125 -0.06417191503495173  0.
0.009055639956038766 -0.06165223170330669  0.
-0.007413226855171797 -0.061032229660548554  0.
-0.024116664020666447 -0.062338164717575736  0.
-0.04135924739428469 -0.06558613820362007  0.
-0.05956847646369099 -0.07071478396699463  0.
-0.07867805456281324 -0.07768660469707687  0.
0.06544132179100075 -0.06330385664689815  0.
0.04966988339301334 -0.05520055512247959  0.
0.034846778369509036 -0.048826338067442444  0.
0.020947165478144555 -0.044402977255530884  0.
0.007478872988954442 -0.04192211122589877  0.
-0.005824143575649641 -0.04137283150866376  0.
-0.0193804500517688 -0.04282012834915929  0.
-0.03349194621958292 -0.046228421049152334  0.
-0.048587948449894926 -0.05172425549781937  0.
-0.06497307368597406 -0.05926492169719376  0.
0.05141457226961388 -0.046215416470961584  0.
0.03846831868178874 -0.03849938381917607  0.
0.02671349040603603 -0.03215961908933086  0.
0.015970143590846492 -0.0277185925606366  0.
0.005749636655979759 -0.02528633281255446  0.
-0.004305707436861245 -0.024836333803047863  0.
-0.014577527315479588 -0.02641420205382681  0.
-0.025493688146287045 -0.030077281040887468  0.
-0.037476317510211764 -0.03570082152535657  0.
-0.05065852819614895 -0.043369698431026386  0.
0.03702752121980566 -0.03318121511021791  0.
0.026891039596014372 -0.024812499782668182  0.
0.018356998027005456 -0.01847896576906256  0.
0.010893215973590213 -0.014283410908711113  0.
0.003940418129731514 -0.012093257860832023  0.
-0.0028782512830613297 -0.01173937681519083  0.
-0.009860512981958763 -0.013257346407235995  0.
-0.017395570590684414 -0.016818585072509884  0.
-0.02608151739713484 -0.022656023911900695  0.
-0.03643519716652272 -0.030709129730753962  0.
0.02214722496524055 -0.02162224769943234  0.
0.0151186309132681 -0.013351962138562571  0.
0.01015145895098147 -0.007908169296340688  0.
0.006043819862590826 -0.004643474229661443  0.
0.0021830809399412156 -0.002943228186125501  0.
-0.0015875351414122456 -0.002697740711257106  0.
-0.005465636465204642 -0.0038974384150215822  0.
-0.009603456295176643 -0.006751607670093207  0.
-0.01460371144725729 -0.011818078314401003  0.
-0.02179548365631068 -0.01998519831104244  0.
0.006687705393633857 -0.009552073999721558  0.
0.004497043569958718 -0.003973196687057236  0.
0.0030051463630384684 -0.0013057889044858866  0.
0.0018653807184492372 0.00015161313198811603  0.
0.0006631830483780223 0.0009125152149782866  0.
-0.0004993340928416586 0.001034287742809892  0.
-0.001696682233574006 0.00047766419446565483  0.
-0.0028642597522442336 -0.0007699140766914127  0.
-0.004311778389387641 -0.0032147241464005752  0.
-0.00663308705080285 -0.008578239023847004  0.
0.0 0.0  0.
0.0 0.0  0.
-0.4555693956674099 -1.9346196536288165  0.
0.2430847623831948 -1.9843511391283495  0.
0.1949132207197807 -1.9559476191796428  0.
0.19048117177306537 -1.9425205387244542  0.
0.19677378738201273 -1.929887830830608  0.
0.21013880069266977 -1.9254553526718239  0.
0.2227558113919659 -1.9318326727896922  0.
0.22724100085225024 -1.9452554166305276  0.
0.2209127793820767 -1.9579367726230144  0.
0.12405748264060974 -1.9500737813558766  0.
0.11970120017485056 -1.936891975456483  0.
0.12585612869352422 -1.9244681769310983  0.
0.13895974034946976 -1.9200811331246275  0.
0.151322459040893 -1.9263476440468565  0.
0.15569082045328322 -1.939550249736623  0.
0.14952471218661859 -1.9520035010009855  0.
0.05463302406964684 -1.9443580345638758  0.
0.05031511646486248 -1.9313457264414058  0.
0.056370206495474626 -1.9190688716626982  0.
0.069297879634553 -1.9147252944747335  0.
0.0814995412621439 -1.9209061130389886  0.
0.08580979212898615 -1.9339375609607532  0.
0.07974609357849716 -1.9462354340839165  0.
-0.014080924131254152 -1.9389654739413844  0.
-0.018349508122375242 -1.9260684929279728  0.
-0.012337086617822818 -1.9138784542369787  0.
0.0004731109837842096 -1.9095517471108616  0.
0.01256619708801163 -1.9156743939660437  0.
0.016828717326662218 -1.9285889737800215  0.
0.010834658531416253 -1.940772001846617  0.
-0.08233623536017251 -1.933894589110212  0.
-0.08657676310753794 -1.9210462737302199  0.
-0.08059106476852164 -1.9089012790869568  0.
-0.06783185305448346 -1.9045585496412802  0.
-0.055778272540675806 -1.9106502810561616  0.
-0.051531164612368514 -1.9235097127175735  0.
-0.05752087334048522 -1.9356720014734763  0.
-0.15059262011867794 -1.9291927073367385  0.
-0.1548286504475666 -1.9163252836532687  0.
-0.14882672538334218 -1.9041728662955817  0.
-0.13604660525214654 -1.8998296438552371  0.
-0.12400296609650109 -1.9059086165065253  0.
-0.11976738610280634 -1.9187626157575008  0.
-0.12577108894734082 -1.9309011903869016  0.
-0.21905285856735765 -1.9247807396634018  0.
-0.2232908722092174 -1.9118908254645763  0.
-0.2172551183024963 -1.8996870714201086  0.
-0.2044262627678235 -1.895325011829729  0.
-0.19233887312748557 -1.9014084385179513  0.
-0.18809382775856498 -1.9143064484540817  0.
-0.1941228066794913 -1.9264907938889757  0.
-0.28814819948512116 -1.9205674647241697  0.
-0.2924173058573506 -1.9075449549982986  0.
-0.28630692944577707 -1.8952450160966814  0.
-0.2733526175587675 -1.8908554009360596  0.
-0.2611560713630361 -1.8969877003201994  0.
-0.25689542129205356 -1.9099820958013713  0.
-0.2630041492274256 -1.9222665353061938  0.
-0.35818689888433913 -1.916398404169424  0.
-0.3624975720427267 -1.9031913088076615  0.
-0.3562879437805293 -1.890743454561233  0.
-0.34315547634247123 -1.8863166798040865  0.
-0.3308007301271147 -1.892538998484672  0.
-0.32648327845867225 -1.9057064372998584  0.
-0.33267800366956485 -1.9181473930987332  0.
-0.4297901866234391 -1.9119202135847315  0.
-0.43420395466973255 -1.8984559636970717  0.
-0.42782052317284 -1.8858382107241605  0.
-0.4144107903719609 -1.8813771035902482  0.
-0.40181953594530306 -1.8877107784601275  0.
-0.39742825764614303 -1.9011173985225225  0.
-0.4037739171811573 -1.9137662312495405  0.
0.1997437436883093 -1.8829425384896716  0.
0.1953362189669717 -1.869714212649334  0.
0.20152727603400375 -1.8572549517618993  0.
0.21470778711216287 -1.852888460459673  0.
0.22715343699308171 -1.859163811137514  0.
0.23160243971363692 -1.8723878955118445  0.
0.2254148262594593 -1.8848695221848495  0.
0.12894796968108047 -1.877402475476207  0.
0.12460179646561524 -1.8642767794361739  0.
0.13073720812343892 -1.8518974286794596  0.
0.14379392490481993 -1.847529987609613  0.
0.1561151704389732 -1.8537479999761324  0.
0.16047661108022204 -1.866880390070718  0.
0.15433960034339575 -1.8792644398165526  0.
0.059442343013109064 -1.8721142492258187  0.
0.05514523906291259 -1.8590975831595178  0.
0.06120893594463757 -1.8468121687429446  0.
0.07413590563614028 -1.8424541708054645  0.
0.08633357657468856 -1.8486223353292666  0.
0.09063880015903983 -1.8616439075102775  0.
0.08456202273489127 -1.8739325554464723  0.
-0.009206175361889609 -1.8670383464095055  0.
-0.013472498103953342 -1.8540942501371782  0.
-0.007453094416314504 -1.8418507730248788  0.
0.005398638289765828 -1.8375008465873348  0.
0.01752183237034753 -1.8436410860701282  0.
0.021790273801233724 -1.8565924034837207  0.
0.015762170822556376 -1.868825810307762  0.
-0.07738243631699733 -1.862151142920597  0.
-0.08163128409523651 -1.8492441907953252  0.
-0.07562234977212641 -1.8370486354628368  0.
-0.0628181582800221 -1.8326983436903832  0.
-0.05074261169058316 -1.838806945580852  0.
-0.04649526030869291 -1.851714731243172  0.
-0.05250039081898573 -1.8639129520657702  0.
-0.1454770387605597 -1.857450732356582  0.
-0.14971667082721613 -1.8445482133178226  0.
-0.1437034794985839 -1.8323501087108394  0.
-0.13089673732796914 -1.8279998811009803  0.
-0.1188287497351528 -1.8340986576399105  0.
-0.11458826317463024 -1.846999193220507  0.
-0.12059992381729598 -1.8591909811551242  0.
-0.21379252587953004 -1.8528755752453676  0.
-0.21805216318352977 -1.8399344993545552  0.
-0.2119991394357352 -1.8276997815800335  0.
-0.19913851386328182 -1.8233313004812979  0.
-0.18702176141995197 -1.829448051989693  0.
-0.18277920556124633 -1.8423922128604007  0.
-0.18882115532222218 -1.8546207234853165  0.
-0.282688061985953 -1.848346984587738  0.
-0.28697003249348185 -1.8353282895386058  0.
-0.28086862882547897 -1.8230373882660118  0.
-0.26792214629873323 -1.8186593004473166  0.
-0.2557319909617538 -1.8248040633973135  0.
-0.25146148837731225 -1.8378101402684628  0.
-0.25755262258699085 -1.8501055423461503  0.
-0.35258371123758186 -1.8437552842847744  0.
-0.3569000311258545 -1.83062742016524  0.
-0.35071344316548453 -1.8182488230768923  0.
-0.3376319991621986 -1.8138567996181667  0.
-0.3253237477085099 -1.8200479540869943  0.
-0.32101641237036505 -1.833160972816406  0.
-0.3271823754034352 -1.8455402055439567  0.
-0.4238006946659351 -1.8390554022036925  0.
-0.42813865057680817 -1.8258179349472585  0.
-0.42184537002205863 -1.8133828884442047  0.
-0.4086274393697701 -1.8089675335701734  0.
-0.39620209153829006 -1.815189427049356  0.
-0.3918600668795159 -1.828400471316055  0.
-0.39811631875687 -1.8408587194413162  0.
0.20402945095059702 -1.810837357665687  0.
0.19962716603844496 -1.7977250877804836  0.
0.20573587685225667 -1.7853704768676024  0.
0.2187929452674119 -1.7810497972420278  0.
0.2311292813491434 -1.7872783044224585  0.
0.23556531919792495 -1.800375103750137  0.
0.2294567413849448 -1.812742671272424  0.
0.13363604721953026 -1.8052162160285818  0.
0.12928788082399262 -1.7921704419629974  0.
0.13536961005089151 -1.779859165748071  0.
0.14834206548893564 -1.7755140048316096  0.
0.16060212605760518 -1.7817058691649823  0.
0.16496705431671657 -1.7947601752179183  0.
0.15888134478082117 -1.807070585558079  0.
0.06426785670997227 -1.7999495464732709  0.
0.059970575398996626 -1.7869643272884477  0.
0.06601568468071353 -1.7747059049660268  0.
0.07890666605902476 -1.7703612740560357  0.
0.09107706101790965 -1.7765109592352477  0.
0.09538672201546845 -1.7894989269662296  0.
0.08934264072897716 -1.8017613169458864  0.
-0.004263156272389862 -1.7949294127137603  0.
-0.008531723523608346 -1.7819977097117352  0.
-0.002517299767348929 -1.7697814021265645  0.
0.010310652529953489 -1.7654340864664748  0.
0.022414899013668024 -1.7715590050692496  0.
0.026686999935131493 -1.7844917077968667  0.
0.020672355902108627 -1.7967109625432205  0.
-0.0723433033889786 -1.7901005980855653  0.
-0.07658510251726337 -1.7771936765527152  0.
-0.07058027157924746 -1.76499818796128  0.
-0.057783719574535666 -1.7606460325507454  0.
-0.045712572998353296 -1.7667553409005037  0.
-0.04146654863935298 -1.7796571191843507  0.
-0.047465410868221446 -1.7918626880479236  0.
-0.14029513428186235 -1.7854096906667312  0.
-0.14453281590709227 -1.772505134885259  0.
-0.13851869658020186 -1.7603136943360906  0.
-0.12572007962089837 -1.7559576082069615  0.
-0.11365488616057487 -1.7620607999833569  0.
-0.10942032788824846 -1.774958863697279  0.
-0.11542858530688258 -1.7871533272111602  0.
-0.20847862329094108 -1.7808161292697102  0.
-0.21272422265108243 -1.767883553458714  0.
-0.206676459134096 -1.7556695108998595  0.
-0.1938344665118485 -1.751307142391161  0.
-0.18173591587061533 -1.7574150869281737  0.
-0.17749735685821902 -1.7703384594215261  0.
-0.18353462202206292 -1.7825561753671546  0.
-0.2772303770537242 -1.7762604808865543  0.
-0.2814905062776921 -1.763274295294826  0.
-0.27539178440870477 -1.751017612693194  0.
-0.2624766733448944 -1.746648309791255  0.
-0.25031640207145406 -1.7527716399692923  0.
-0.24606025851226695 -1.765747698560141  0.
-0.25214084627165206 -1.7780097414440206  0.
-0.34688519482586067 -1.7717115429413564  0.
-0.35117226483600855 -1.758665709140828  0.
-0.34500443563242256 -1.7463632280312773  0.
-0.33198851057167184 -1.7419780912961114  0.
-0.3197510494109315 -1.7481223566033672  0.
-0.31546942931224453 -1.7611626014477317  0.
-0.32161791241850285 -1.773469783460983  0.
-0.4176488667870984 -1.7672224563244752  0.
-0.4219433010768115 -1.7541090621355506  0.
-0.4156961653512054 -1.741789281768087  0.
-0.4025912108835228 -1.7373850278855199  0.
-0.3902670278560332 -1.7435322778148243  0.
-0.3859702689726343 -1.756624114441478  0.
-0.3921910356656727 -1.768980462221904  0.
0.20786586714313934 -1.7391564347279658  0.
0.20346722044640175 -1.726107557904786  0.
0.20952522732418186 -1.7138064842213971  0.
0.22251044795346384 -1.7095125464006322  0.
0.2347937708509005 -1.715702724324924  0.
0.23922723784871963 -1.7287534457178706  0.
0.23317206417351255 -1.7410827046207453  0.
0.13791768805739177 -1.7333875958668048  0.
0.13357597002998325 -1.720401462662138  0.
0.13960433910372713 -1.708144926731242  0.
0.15250429487088482 -1.7038319979628531  0.
0.16470880827108839 -1.7099995752833537  0.
0.1690695391472509 -1.722988841069874  0.
0.16304147074323144 -1.7352425517016503  0.
0.06888397069864056 -1.7280015371663882  0.
0.06458778802653062 -1.7150716323569015  0.
0.070589121567761 -1.7028578407796786  0.
0.08342211134802671 -1.6985356589339209  0.
0.09554734342655266 -1.7046684635640175  0.
0.09985480245991342 -1.717598726641561  0.
0.09385307056568441 -1.7298154901826577  0.
0.0005700946812837168 -1.7229276236820164  0.
-0.0036898292383504426 -1.7100376678743736  0.
0.002296027670195049 -1.6978553640166107  0.
0.01507766511464324 -1.6935239681015282  0.
0.027144469423862845 -1.6996320493467874  0.
0.03141259135136602 -1.7125207762580128  0.
0.025429165151073626 -1.724701748134588  0.
-0.067304449661609 -1.7180902035054437  0.
-0.07153736509666793 -1.7052183346454308  0.
-0.06555289966044756 -1.693058984658004  0.
-0.0527961561003382 -1.6887213316409875  0.
-0.0407582445074987 -1.6948090338091997  0.
-0.03651846900711844 -1.7076722911615068  0.
-0.04249857827141662 -1.7198364872972633  0.
-0.1350687832731848 -1.7134228593365213  0.
-0.13929505406754678 -1.700556949113485  0.
-0.13329831943897197 -1.6883988660824039  0.
-0.12053492566747448 -1.6840528545682376  0.
-0.10850275638531848 -1.6901343082304459  0.
-0.10427781818748492 -1.702994256183902  0.
-0.11026427282082621 -1.7151617148847977  0.
-0.20304567093811685 -1.7088963271370126  0.
-0.20727013790677856 -1.696010198066147  0.
-0.20124162493940956 -1.683835996594128  0.
-0.18844247076899992 -1.6794828220448106  0.
-0.17638446970461574 -1.6855628096366013  0.
-0.17216083632289475 -1.698443871965316  0.
-0.1781797379034324 -1.7106237432990703  0.
-0.27157138427782296 -1.7044697193703837  0.
-0.2758026712046104 -1.6915471583081134  0.
-0.2697249105327936 -1.6793537342041525  0.
-0.25686349964139304 -1.6749914275961586  0.