<?xml version="1.0"?>
<VTKFile type="UnstructuredGrid" version="0.1" byte_order="LittleEndian" compressor="vtkZLibDataCompressor">
<UnstructuredGrid>
<Piece NumberOfPoints="11576" NumberOfCells="22900">
<PointData>
<DataArray type="Float64" Name="displacement" NumberOfComponents="3" format="ascii" >
0.11148630325472737 -4.967952255680979  0.
-0.06321453244881022 -4.93321382850499  0.
-0.23419742026321805 -4.900074045752976  0.
-0.40338714770871564 -4.868332710888055  0.
-0.5716278262250301 -4.8377748009225  0.
-0.7398958620599516 -4.808204257636837  0.
-0.9088153412134472 -4.77942260873635  0.
-1.0791741606821097 -4.750934097292213  0.
-1.2517832878571316 -4.722289850697488  0.
-1.4278449724467879 -4.692424457665874  0.
0.14317917885867412 -4.786812034278598  0.
-0.031473915225542895 -4.753623156059956  0.
-0.20288549718380625 -4.721830152236557  0.
-0.3721562674487238 -4.691053950181051  0.
-0.5402739051441466 -4.661064742965832  0.
-0.7082041048128954 -4.631652967996874  0.
-0.8766508808569456 -4.602535092038798  0.
-1.0464623751086117 -4.57331005060447  0.
-1.2184949231637157 -4.543486592835637  0.
-1.3937036577383852 -4.512596227375198  0.
0.17274862986642586 -4.608381503909634  0.
-0.0006472495600390348 -4.575343945721355  0.
-0.17166241409365754 -4.543775750623633  0.
-0.3407025185819358 -4.513283169615881  0.
-0.5086139504980113 -4.483544393805573  0.
-0.6762148665759544 -4.454229174110884  0.
-0.8443373645253901 -4.425115999888359  0.
-1.0137799936859877 -4.395825287090577  0.
-1.1853661994232951 -4.366065863123367  0.
-1.3597048534599123 -4.335829174829043  0.
0.20111126205111005 -4.431006381661381  0.
0.028995787666284648 -4.397839647650332  0.
-0.14112776021571322 -4.366165756239178  0.
-0.3095874489579432 -4.3356658637011725  0.
-0.4770075524700677 -4.306010179137957  0.
-0.6441924296912805 -4.276862174012294  0.
-0.8118711086467332 -4.247977114644536  0.
-0.9808679437273464 -4.219039122971317  0.
-1.15188204423261 -4.18989930586277  0.
-1.3253981032237019 -4.160540576877626  0.
0.2283002867076189 -4.254085519751869  0.
0.057515829215501926 -4.220865856132468  0.
-0.11152320007313966 -4.1891230316287835  0.
-0.27908784657649743 -4.158614584572768  0.
-0.44577011719183385 -4.129033105415774  0.
-0.6122623879082345 -4.100122087527536  0.
-0.779310921196455 -4.0716201128822185  0.
-0.9476577470344504 -4.043209177050044  0.
-1.1178943123239435 -4.014823020690785  0.
-1.2905590505976554 -3.986325748506438  0.
0.254418039276223 -4.077933615699557  0.
0.08485753404539628 -4.044568498561065  0.
-0.08286172211169304 -4.0127765715952055  0.
-0.24930034266715875 -3.9823036808704986  0.
-0.4149810699999564 -3.9529051639802164  0.
-0.5805730144521005 -3.9243049872972007  0.
-0.7467460063083111 -3.8962692964746655  0.
-0.9141783737714057 -3.8685092038087814  0.
-1.0834835866743349 -3.840928702500889  0.
-1.2552775727015737 -3.8133344727959058  0.
0.27920666307953035 -3.9023736246518435  0.
0.11114641154267055 -3.8690715679471492  0.
-0.05522533192990385 -3.8372663535100577  0.
-0.22029520345231585 -3.8069835615976486  0.
-0.38475380113564933 -3.777836016548204  0.
-0.5491740295517205 -3.749619790377028  0.
-0.7142187601698277 -3.72208639278525  0.
-0.8805027093074761 -3.6950082163888296  0.
-1.0487614520212327 -3.668317035116193  0.
-1.2194156044892521 -3.6416132000849637  0.
0.30268439385383133 -3.7279942160595048  0.
0.13616062571270535 -3.6945316618207458  0.
-0.028587098343952573 -3.6629424476770995  0.
-0.1921528243551435 -3.632856214729426  0.
-0.35514404952943623 -3.6040183460795348  0.
-0.5181665181512758 -3.576258924513585  0.
-0.6818448566855516 -3.549321217636252  0.
-0.8467994893217986 -3.523023990012576  0.
-1.0137225039978686 -3.497141274983471  0.
-1.1832634405503046 -3.4715433847583412  0.
0.32463557213729427 -3.554443797304688  0.
0.15995093191850016 -3.5212995041181543  0.
-0.0030219669877043116 -3.4898361583725723  0.
-0.16486124560852441 -3.460017279022321  0.
-0.32619343842592563 -3.4316246103454335  0.
-0.48762041428656333 -3.40439698337342  0.
-0.649724136433857 -3.3781145198159694  0.
-0.8131486646810149 -3.352634810525012  0.
-0.9785709902560499 -3.3277110010139346  0.
-1.146515950380397 -3.3030519745160802  0.
0.3451524576527568 -3.3826287839106937  0.
0.18245217149859783 -3.349470285470138  0.
0.02135738577156309 -3.318255916263531  0.
-0.13854955573658548 -3.288843271164934  0.
-0.29796731635568713 -3.2608611363001927  0.
-0.45759650915861 -3.234214724127175  0.
-0.6179253585906476 -3.2087296049212024  0.
-0.7795411432050229 -3.1840398510063346  0.
-0.943288590414827 -3.1600769492108975  0.
-1.1096906386928245 -3.1366808070981804  0.
0.36389402237835045 -3.212067767301637  0.
0.2034915720697524 -3.1793677323402485  0.
0.04452976835524048 -3.1484668604285333  0.
-0.11324847645746622 -3.1193970374064426  0.
-0.2706123317305177 -3.0920009001555333  0.
-0.4281531564389251 -3.0660035362503  0.
-0.5864480836899831 -3.041250480393781  0.
-0.7461693110825172 -3.0175470412567678  0.
-0.9080222990782989 -2.994622280231085  0.
-1.0723000333382111 -2.972284079741863  0.
0.38107347297556227 -3.0438980215643627  0.
0.22293742523132318 -3.0110230886590266  0.
0.06646803636411876 -2.9805115938115803  0.
-0.08902039561386632 -2.9519564141294268  0.
-0.24406509545594313 -2.9250756438237433  0.
-0.39937133781962736 -2.8997935309973975  0.
-0.5554726719705734 -2.8759393456191793  0.
-0.7129970414284523 -2.85314460620755  0.
-0.8726406788682314 -2.831441087426044  0.
-1.0351362060724159 -2.8105651421407183  0.
0.39636622946238625 -2.877117091113002  0.
0.2409601251160801 -2.8449177427866075  0.
0.08697326017104695 -2.814765697621156  0.
-0.06594770841938634 -2.7866727540603566  0.
-0.21849889781578757 -2.760489426629812  0.
-0.37131628194738964 -2.7359787241408573  0.
-0.5249669123618611 -2.712975730747146  0.
-0.680112854304125 -2.691256931756141  0.
-0.8374905889844584 -2.670736884746837  0.
-0.9974297026492716 -2.6510315409658682  0.
0.4099941963433057 -2.713142431775813  0.
0.2571897990205039 -2.6810211995917204  0.
0.1060873023331646 -2.6513526380748815  0.
-0.04408232023169224 -2.62389293680939  0.
-0.19394024973107593 -2.598421116063614  0.
-0.3440449211089448 -2.574687703302443  0.
-0.49507004060020876 -2.5526261803152988  0.
-0.6475970726366497 -2.532036300990356  0.
-0.8022601184885012 -2.5126705717119884  0.
-0.9599849673346328 -2.4944705212317086  0.
0.42147517037264454 -2.551080546395799  0.
0.2719200315120296 -2.5196289700106713  0.
0.1237434605059633 -2.49056456927049  0.
-0.02349463104338545 -2.4636796945399495  0.
-0.17039623475009774 -2.438910326719978  0.
-0.31761492286159265 -2.4160819471483315  0.
-0.46575404436342216 -2.395036740355691  0.
-0.6154817783199179 -2.3755693614406517  0.
-0.7673733844682727 -2.357425499951528  0.
-0.9220391065627369 -2.340597589482076  0.
0.4312953751666981 -2.3924760192221046  0.
0.28478485457065117 -2.3611799655995087  0.
0.13985452064049889 -2.332525145518638  0.
-0.004230786270811594 -2.3062956778416237  0.
-0.14796979317337328 -2.28231715353086  0.
-0.29207943505277817 -2.260417108954909  0.
-0.43710822125403326 -2.2404005527177175  0.
-0.5837829212951345 -2.2220892961253975  0.
-0.7327656797510118 -2.205495262954077  0.
-0.8846952015042472 -2.190214700737892  0.
0.43887158402988335 -2.236104239654054  0.
0.2958325474521581 -2.2055854242577357  0.
0.1542741749965535 -2.177620268001905  0.
0.013653771558137346 -2.1520628943396574  0.
-0.12671691797312326 -2.128861921147088  0.
-0.26747453661942056 -2.1078796093762553  0.
-0.4092119309938388 -2.088955528835536  0.
-0.552592943116392 -2.0719627613125597  0.
-0.698237501529131 -2.056645246800835  0.
-0.846902703123519 -2.0427635872084005  0.
0.4445860440667167 -2.083579047575075  0.
0.30510003154212506 -2.053340572980288  0.
0.16707208010573246 -2.025807256836891  0.
0.030082952841623906 -2.0011281189084915  0.
-0.10672570984558896 -1.9787689508196473  0.
-0.2438840215359791 -1.9587721184018068  0.
-0.3820844134978356 -1.9409706368167783  0.
-0.5218610775380925 -1.9251372070462471  0.
-0.6641737353604057 -1.911279132060614  0.
-0.8096267876868978 -1.8991132322450923  0.
0.4478251153384175 -1.9338013194464403  0.
0.3123495314641847 -1.904384512922571  0.
0.1782988207944506 -1.8777215748115654  0.
0.04503082992892658 -1.8536996070082812  0.
-0.08794301327393318 -1.8322126043700706  0.
-0.221341002064445 -1.8132312292440416  0.
-0.3557844387430774 -1.7966077193452057  0.
-0.491924162666217 -1.7821039764260047  0.
-0.6304074223589499 -1.7696040478059798  0.
-0.771872035725285 -1.7589896350018628  0.
0.4492769908341906 -1.7884746439661285  0.
0.3177441664654365 -1.7592202377352726  0.
0.18768540773499967 -1.7332884014678454  0.
0.058487802586749384 -1.7100529163843328  0.
-0.07045658773979739 -1.689452588466988  0.
-0.19989761386027738 -1.6715013470703481  0.
-0.3303429725446018 -1.6560253852703681  0.
-0.4625173131459718 -1.64287650262304  0.
-0.5971180409103102 -1.6318425426212977  0.
-0.7349222083202551 -1.6231243579486685  0.
0.4484296637266188 -1.6461690227871264  0.
0.3212422696379405 -1.6179885274658696  0.
0.195357646312457 -1.5926346819679509  0.
0.07040031777256417 -1.5703907884885326  0.
-0.05435755450076815 -1.5507301467882233  0.
-0.17957186593066624 -1.5338135704140567  0.
-0.3058333612040707 -1.519503239822672  0.
-0.4337537974472678 -1.507573186932056  0.
-0.5642276072733261 -1.4980472589011677  0.
-0.6977531790304716 -1.4907720064200758  0.
0.44563481813441574 -1.5089270691330077  0.
0.3226475049545226 -1.4811123349812452  0.
0.20117648054876822 -1.4564970238190416  0.
0.08070052660269017 -1.4348678251480456  0.
-0.03959375896774563 -1.4162325984576747  0.
-0.16035283159063715 -1.400369644413274  0.
-0.2821271306849648 -1.3872421254644216  0.
-0.40570926497111953 -1.3767997216253622  0.
-0.5318521540326285 -1.368840965366383  0.
-0.6611741952880333 -1.3631741105825737  0.
0.43976520482749343 -1.3754748191772612  0.
0.32194333768620187 -1.348520808184516  0.
0.2053053933578722 -1.3246495371388196  0.
0.08936413451864943 -1.303833665648897  0.
-0.02618546870395017 -1.2860635848561563  0.
-0.14229494569038417 -1.2712713478185589  0.
-0.25942028626411073 -1.2594548391291038  0.
-0.37838244497074597 -1.250308882234813  0.
-0.49972457916076585 -1.2439296470728214  0.
-0.6242072017633209 -1.2402541626998373  0.
0.4323364097921005 -1.2473751452426507  0.
0.31916187908482263 -1.220742544554589  0.
0.20735543164192993 -1.1974142694489158  0.
0.09644343210345298 -1.1774483224786554  0.
-0.01423092811873969 -1.1606730374329361  0.
-0.12541325177837748 -1.14697262214105  0.
-0.2376149037032426 -1.136325920893335  0.
-0.35166192312835803 -1.1285680341111348  0.
-0.4682801752386702 -1.123835985644953  0.
-0.5880839601726775 -1.1219706818294128  0.
0.4222268542229956 -1.1233575557156537  0.
0.3142271040565603 -1.097732893755201  0.
0.20752922699355447 -1.0751700664031825  0.
0.1018702948114271 -1.056093417846637  0.
-0.003713089587533855 -1.04027831375478  0.
-0.1097104328123052 -1.0275823131045954  0.
-0.21682791646296218 -1.0181261546752804  0.
-0.3256364738733628 -1.011806948237041  0.
-0.43710484820865464 -1.0085381638306956  0.
-0.5516458882697761 -1.0081544574233523  0.
0.4104757976621951 -1.0051304654716238  0.
0.30735725366434796 -0.9799062289911781  0.
0.2059976270385601 -0.9582117066623109  0.
0.105587215462511 -0.9398695353404952  0.
0.005423067940084361 -0.9249431019976925  0.
-0.09521627552510786 -0.9133717424803709  0.
-0.19693086560451975 -0.9051515321796952  0.
-0.30044684505407043 -0.9001924619461527  0.
-0.4065578055927615 -0.898488606371033  0.
-0.5161420405370705 -0.8996918532636102  0.
0.3954010331391556 -0.8919605738201358  0.
0.2984427974411246 -0.8676786119571818  0.
0.20255095438024026 -0.8464985419033968  0.
0.10768842942445839 -0.8290192985117995  0.
0.013136670203590085 -0.8150194207476051  0.
-0.08191502883736913 -0.8044964859029285  0.
-0.17799551436209204 -0.7974357801365612  0.
-0.27587326188712463 -0.7937651230385994  0.
-0.3764908999068136 -0.7935864175524109  0.
-0.479865422703972 -0.7966665173688964  0.
0.3788350464200779 -0.7852325640663869  0.
0.28714840261662344 -0.7610781679129727  0.
0.19721887393730958 -0.7406947686882971  0.
0.10819349432143856 -0.7239522935214736  0.
0.01939681425528064 -0.7107555075852926  0.
-0.06976772481226204 -0.7012177135611912  0.
-0.16006315082823486 -0.6953273505682073  0.
-0.25208562980671484 -0.6930540019662629  0.
-0.3465586531138912 -0.6942883876686189  0.
-0.4446607213107307 -0.6992256633968489  0.
0.3594097218699028 -0.683750175276063  0.
0.27420560800780563 -0.660490575356143  0.
0.18998729559195818 -0.6408222716803994  0.
0.10699153414178891 -0.6247769018690462  0.
0.024254043301240053 -0.612436487227113  0.
-0.0588436514154033 -0.603880635444714  0.
-0.14297588638765163 -0.5991013165399915  0.
-0.22886517235021747 -0.5981347931786146  0.
-0.31755357465873807 -0.6007846893957809  0.
-0.40901332567848053 -0.6073283365125114  0.
0.33856715749511435 -0.5890502831769034  0.
0.25875494966013085 -0.5662182481484347  0.
0.1811625169148651 -0.5472138118260427  0.
0.10419317838362877 -0.5317282978256972  0.
0.027775275081346345 -0.5201998267649102  0.
-0.04904685342036972 -0.5125492576390198  0.
-0.12683385943252756 -0.5088543089677703  0.
-0.20655423269489243 -0.5091569121753461  0.
-0.28840801804610966 -0.5133131341288969  0.
-0.37422783611100746 -0.521337505601844  0.
0.314318426757022 -0.5007034526341114  0.
0.24165072245023128 -0.4784523251658912  0.
0.17036426004080293 -0.4600438185514529  0.
0.09990211913718151 -0.44515345743023793  0.
0.029928345116872406 -0.4343032087504876  0.
-0.040370506926140914 -0.4275370009350364  0.
-0.11160163806693062 -0.42488014199846386  0.
-0.18472376195225126 -0.4264443685214102  0.
-0.2600151331520528 -0.4319594077716475  0.
-0.3385351665940761 -0.4417286841358169  0.
0.2889335706364816 -0.4197188632075853  0.
0.22252556020369574 -0.39753398994267947  0.
0.15774858004785997 -0.3793207926326575  0.
0.09404818440509957 -0.3651914232318419  0.
0.0307627807474871 -0.3550481824408602  0.
-0.03274511552597496 -0.34909283573129835  0.
-0.09718990118358409 -0.3473541456066503  0.
-0.16328196872222364 -0.3499076140827294  0.
-0.23192587832836573 -0.35691213569700236  0.
-0.3038944922407691 -0.3684793698908091  0.
0.2608519458026857 -0.34494680127638955  0.
0.2015469200739682 -0.32365905561473096  0.
0.14352548753115907 -0.30585142492516765  0.
0.08659481620466314 -0.29206774317057765  0.
0.0303137086493531 -0.28254875068407337  0.
-0.026102535345776594 -0.2773278661798967  0.
-0.0834014154797766 -0.27653492257672757  0.
-0.14246309138961977 -0.28025291409046105  0.
-0.20406706019732315 -0.2885463987346392  0.
-0.2683854182201868 -0.30093994166038746  0.
0.23121103653189984 -0.27890228104362524  0.
0.17839662600334388 -0.2570756473180699  0.
0.12756787766403477 -0.23949647625698572  0.
0.07768560853843773 -0.22615423556052686  0.
0.02868816776659195 -0.21707954225829318  0.
-0.020397467457882915 -0.21254451549662035  0.
-0.07030976053937871 -0.21259925865688467  0.
-0.12204218802198945 -0.21734583278953837  0.
-0.17599216090288616 -0.22697527984014348  0.
-0.23351809525220626 -0.2416263548410389  0.
0.1991930323306771 -0.21924645896076622  0.
0.15373666118851415 -0.19808355661730737  0.
0.10976493227540425 -0.1808102166245388  0.
0.06737807279375238 -0.16751415804173478  0.
0.025879817319272976 -0.15888701707753927  0.
-0.015548695418256951 -0.154966045069462  0.
-0.05779599903061411 -0.155873362845746  0.
-0.1016978649985226 -0.16175055664986315  0.
-0.1484395162729097 -0.17253144247197064  0.
-0.1980307566711838 -0.1883236992700673  0.
0.16605996282849955 -0.16869395791353436  0.
0.12714766767202468 -0.14713455996473343  0.
0.09038478986617506 -0.12956252393799286  0.
0.055733788469813 -0.11667379869592895  0.
0.021998738228626896 -0.1085032417290593  0.
-0.011469655086972336 -0.10507779780019323  0.
-0.04575605853880674 -0.10670356437720599  0.
-0.08167516821431338 -0.1133666180961843  0.
-0.12043550603227533 -0.12545578126889137  0.
-0.16294099749183236 -0.14310399013567157  0.
0.13101805167011324 -0.12369824455931389  0.
0.09895772668657397 -0.10342397809170611  0.
0.0697091258043135 -0.08627658255105321  0.
0.04289529689831343 -0.07366396246922198  0.
0.017274337451799696 -0.06592855621198755  0.
-0.008030451236168416 -0.06309899772128401  0.
-0.03400571739518892 -0.06536965899440962  0.
-0.06178108238646554 -0.0729967551263446  0.
-0.09249102378065051 -0.08580345524230835  0.
-0.1266684076502296 -0.1041988733517909  0.
0.09458381479563181 -0.08903345265903784  0.
0.06940325659856789 -0.06740665846378151  0.
0.04812703003548214 -0.050583068417897475  0.
0.029451117750000175 -0.038880542885314576  0.
0.011997387570660078 -0.03207472404025204  0.
-0.005167857672647035 -0.029820818249055647  0.
-0.022812435619597046 -0.032266062749166165  0.
-0.041955238534627425 -0.03996929607371462  0.
-0.06418308555712185 -0.05366275040055793  0.
-0.09088570365706135 -0.07335399243512311  0.
0.056626175004910996 -0.05805595383643855  0.
0.0391384753043145 -0.03701635938112839  0.
0.026673888195459152 -0.02267567129781968  0.
0.0163711251913605 -0.013637198702766922  0.
0.006665294204049876 -0.008427216193655877  0.
-0.002833132488754899 -0.006840256089053513  0.
-0.012624429841125146 -0.008884554638099883  0.
-0.02311931306502417 -0.015153363178059934  0.
-0.03584550504703448 -0.02718394521423999  0.
-0.054383592309836394 -0.04757820900052385  0.
0.017088723379433075 -0.025896721084453168  0.
0.011630807453461614 -0.011541407509765672  0.
0.007875845805107893 -0.00447420286443773  0.
0.005025211256640845 -0.000425778774884474  0.
0.0019880957291393718 0.0019023004548508124  0.
-0.0009435740526907969 0.0026340271789895746  0.
-0.0039596876155516105 0.001668980527432146  0.
-0.006934134921665402 -0.0010543151984062466  0.
-0.010607315343082636 -0.006811208907151434  0.
-0.016554675063903238 -0.019978509485127548  0.
0.0 0.0  0.
0.0 0.0  0.
-1.5282177337788363 -4.722916974973131  0.
0.1947239715217302 -5.035119989780114  0.
0.08202510613902886 -4.948353889224066  0.
0.07469550040978667 -4.91361882998001  0.
0.09389804332672141 -4.883847487830107  0.
0.12845794360045687 -4.876521189179502  0.
0.15815288695784163 -4.895963194339119  0.
0.16565094312252115 -4.930725451132041  0.
0.14629513388982004 -4.960652685555166  0.
-0.09211444964174094 -4.914212041705362  0.
-0.09939022066922729 -4.880289991649955  0.
-0.08075417370053464 -4.851073933544987  0.
-0.04702304503903498 -4.843723855520676  0.
-0.018024612986830345 -4.862645921422455  0.
-0.010738968906247707 -4.896642242608747  0.
-0.02941581180710487 -4.92593527672825  0.
-0.2626887043032846 -4.881442488274764  0.
-0.2699592675339348 -4.847995036489468  0.
-0.2516718500544173 -4.819115788216225  0.
-0.21843249264998832 -4.811783018712692  0.
-0.18980904921743133 -4.830381611686776  0.
-0.18257032297993764 -4.863879679822537  0.
-0.20088983403656963 -4.8928048646597935  0.
-0.4317528404786095 -4.849936935800628  0.
-0.43896337369836763 -4.816797286421183  0.
-0.4208252561431136 -4.788114432089928  0.
-0.38788291765363536 -4.780759636854365  0.
-0.35949563141317425 -4.7991530323664335  0.
-0.3523136177104434 -4.83233470387093  0.
-0.3703943036563655 -4.861010796010701  0.
-0.5998774805588382 -4.819499244951462  0.
-0.6070451920621672 -4.786501695392672  0.
-0.5889962886792145 -4.757914673342112  0.
-0.5561723585247336 -4.750494348859559  0.
-0.5278658342979766 -4.768785694611342  0.
-0.5206887795491723 -4.801819693414544  0.
-0.5387573262307302 -4.830442021951422  0.
-0.7682222356180538 -4.790006080267934  0.
-0.7753657712574673 -4.756965027443308  0.
-0.7572729738973717 -4.728367304916479  0.
-0.7243959584318744 -4.720954183299587  0.
-0.696103288765892 -4.739208589352312  0.
-0.688954469303309 -4.772223583015779  0.
-0.7070443740205207 -4.800783489224735  0.
-0.9372264753683548 -4.761148762468719  0.
-0.9443643900316409 -4.728047616613093  0.
-0.9261597305693537 -4.6993466099639  0.
-0.8931544724399666 -4.6919116599903035  0.
-0.8647597012908371 -4.710196635263998  0.
-0.8576138898449858 -4.743321205991076  0.
-0.8757880394629955 -4.771975460926207  0.
-1.1078662758029378 -4.732497572179918  0.
-1.115005520160313 -4.699066565198251  0.
-1.0965704800209455 -4.6701683807040455  0.
-1.0632478061077495 -4.662727869763164  0.
-1.0346154717670812 -4.6811871120038875  0.
-1.0274815602741505 -4.714551278692882  0.
-1.0459038586197542 -4.743406613707816  0.
-1.2808133426644337 -4.7035378922363975  0.
-1.2879478372742834 -4.669634086356045  0.
-1.269191585103409 -4.640422876110673  0.
-1.2354163275909849 -4.632980439103361  0.
-1.2064459895714188 -4.651742403179895  0.
-1.1992706442116592 -4.685557245918365  0.
-1.2179880698431715 -4.714750612533318  0.
-1.45748245384682 -4.673114264474369  0.
-1.46474401548761 -4.63840171172704  0.
-1.4454214215177985 -4.6088065508693985  0.
-1.410874029527762 -4.60144323312172  0.
-1.3813447051461332 -4.6206621428379515  0.
-1.3741219838144023 -4.655173655819766  0.
-1.3933642421302341 -4.684846997943885  0.
0.11396704134055219 -4.767785285004039  0.
0.10659560073578987 -4.733704010097037  0.
0.12535619829456712 -4.704416169793615  0.
0.1592793404552495 -4.697160655238179  0.
0.188489260482349 -4.71614909707513  0.
0.19597748044302854 -4.750239877783184  0.
0.17722472009195767 -4.779602705814435  0.
-0.06037662053233703 -4.73483664386209  0.
-0.06764806313435177 -4.701056631687333  0.
-0.04907453044184983 -4.671943669289112  0.
-0.015465222803998941 -4.664612139059109  0.
0.013460951035145871 -4.683381030408251  0.
0.020766513706004814 -4.717187560865032  0.
0.002187127025703584 -4.746314065649442  0.
-0.23149947943348634 -4.703254357080827  0.
-0.23871130792965234 -4.669788212596334  0.
-0.2203810265902427 -4.640880119249407  0.
-0.1871154727658557 -4.633504533409171  0.
-0.15848188321966256 -4.6520732133665375  0.
-0.15125407627841525 -4.685561159421117  0.
-0.16962067418958465 -4.714469804522703  0.
-0.4005905155137957 -4.672638497045511  0.
-0.40776619330033703 -4.639376790548012  0.
-0.38957488120950273 -4.610556456185834  0.
-0.35650781630429 -4.6031627822351115  0.
-0.32804890260978625 -4.621618425686029  0.
-0.3208749714478711 -4.65490071027536  0.
-0.3390817331790578 -4.68369096603602  0.
-0.5686247038912061 -4.642737344290724  0.
-0.5757774749553387 -4.609580519165717  0.
-0.5576392217025697 -4.580874946799429  0.
-0.5246924310858033 -4.573455968525608  0.
-0.49633537408476486 -4.591805776299867  0.
-0.4891896804290415 -4.624966370567417  0.
-0.5073183845331921 -4.6536788647372225  0.
-0.7365612210549629 -4.613349568744663  0.
-0.7436945431093717 -4.5802111406855195  0.
-0.7255460011798588 -4.551504783279091  0.
-0.6925962181016313 -4.544087421640977  0.
-0.6642535368834437 -4.562405838979682  0.
-0.6571195594028406 -4.59554181639655  0.
-0.6752602148746351 -4.624232326137861  0.
-0.9051083394949628 -4.584172668876723  0.
-0.9122677091230259 -4.550927716463494  0.
-0.8940030034515039 -4.522151916988214  0.
-0.860911770860362 -4.514716611134963  0.
-0.8324596840069117 -4.533105135878976  0.
-0.8253434281414774 -4.566348805186733  0.
-0.8435778502483106 -4.595113744739898  0.
-1.0750691433892225 -4.554827868674241  0.
-1.0822412939513455 -4.521382866331471  0.
-1.0638300602947866 -4.492492102716304  0.
-1.0305254396388264 -4.485077684631101  0.
-1.0019098619865718 -4.503574258218109  0.
-0.9947585888465708 -4.536984124396034  0.
-1.0131481932007569 -4.565887516047079  0.
-1.2474150181741848 -4.524803521981314  0.
-1.2546143924287603 -4.491062828581687  0.
-1.2359460043653785 -4.461995326532627  0.
-1.2022981608371133 -4.454619723545325  0.
-1.173415554361637 -4.473299273139712  0.
-1.166231108739972 -4.506997361386426  0.
-1.1848503837844242 -4.536074317291564  0.
-1.422958230893272 -4.493732987791516  0.
-1.4301607764057052 -4.459704306117009  0.
-1.4111893006699505 -4.430542883166091  0.
-1.3771793515741342 -4.423185778435467  0.
-1.3480160447442917 -4.442015669474893  0.
-1.3407957851507586 -4.4759881000488  0.
-1.3596852607839913 -4.505220672149415  0.
0.1438192989453675 -4.589586898428651  0.
0.1363968112842931 -4.555837371124072  0.
0.15486664624555166 -4.526791315557604  0.
0.18841916862920982 -4.51958205640791  0.
0.21735084612545638 -4.538368480415643  0.
0.22486699416622982 -4.572092615809641  0.
0.20639713424974915 -4.601177563127012  0.
-0.029379637831955525 -4.556702198107479  0.
-0.03669973629466612 -4.5231362377459075  0.
-0.018306709946634376 -4.4941753331771235  0.
0.015066940127206314 -4.486855167466869  0.
0.0438454262600967 -4.505516590845908  0.
0.05120379823823198 -4.539113871027761  0.
0.03280374369199571 -4.568070301525394  0.
-0.20022149869161748 -4.525265399382289  0.
-0.20744884540246064 -4.491879870124537  0.
-0.18917805853698416 -4.463031780289305  0.
-0.15600912092788508 -4.455669299725198  0.
-0.12743216428831988 -4.474175429478386  0.
-0.12017769128393263 -4.507575606322862  0.
-0.13844712886450844 -4.536434633482349  0.
-0.36910186195993905 -4.494885652910707  0.
-0.37628828084853777 -4.461648034019127  0.
-0.35811903572635717 -4.432888761927275  0.
-0.32510740452755693 -4.425488187977488  0.
-0.29668340481238104 -4.443896522427245  0.
-0.2894902202422411 -4.477139318605656  0.
-0.3076609800063024 -4.505904589526211  0.
-0.5369572529646742 -4.465201818856962  0.
-0.5440926269006916 -4.4320421948766064  0.
-0.5259600550267864 -4.403329615563407  0.
-0.493025035009598 -4.3959011533028605  0.
-0.464674989013243 -4.414254170446108  0.
-0.4575295557322976 -4.447404734797928  0.
-0.47565176216253485 -4.476143229068681  0.
-0.7045599274045982 -4.43592108201812  0.
-0.7116864053847155 -4.402771830440003  0.
-0.6935359238407647 -4.374076585712512  0.
-0.6605980039297119 -4.3666398799885116  0.
-0.6322619784251232 -4.384972800728384  0.
-0.6251411833140955 -4.418105182758187  0.
-0.6432779426145917 -4.446809025642923  0.
-0.8727695490776134 -4.406759719765041  0.
-0.8799003939733777 -4.373536710330977  0.
-0.8616575628170683 -4.3448031812048  0.
-0.8286107309840638 -4.3373737626370525  0.
-0.8001960579832053 -4.355736669400209  0.
-0.7930788163344447 -4.3889337134807755  0.
-0.8112957262567929 -4.4176797205753155  0.
-1.042369281565796 -4.377386832207093  0.
-1.049509455112047 -4.344023182900685  0.
-1.031118542904244 -4.315209597698527  0.
-0.9978878128298531 -4.307801597790421  0.
-0.9693289071733977 -4.326236837270034  0.
-0.9621961740329987 -4.359574274280223  0.
-0.98054497132733 -4.388409480773835  0.
-1.2141654680030471 -4.3475280050711955  0.
-1.2213400146552802 -4.314000852625024  0.
-1.202756335670124 -4.285108985459457  0.
-1.1692699396394675 -4.277717727017669  0.
-1.1405310542210245 -4.296247534322742  0.
-1.1333699271830673 -4.329758695307962  0.
-1.1519079733980306 -4.358670700581516  0.
-1.3887129382816186 -4.3172023643400275  0.
-1.3958733722466254 -4.283507739953821  0.
-1.3770845719859472 -4.254603060498869  0.
-1.3433634869960216 -4.247214040308891  0.
-1.3144134981818059 -4.265803610857905  0.
-1.3072408436611815 -4.299454803929516  0.
-1.3259827448024963 -4.328451027874666  0.
0.17231490739251665 -4.412278509934646  0.
0.1648708885852735 -4.378693307957284  0.
0.18318600173191313 -4.34975434457064  0.
0.21654424563520394 -4.3425704175163835  0.
0.24536510486026314 -4.3612269906324626  0.
0.25289278956667105 -4.394834615466172  0.
0.23457347127756212 -4.423853752859846  0.
0.0003652981080231111 -4.379293018330663  0.
-0.006971986025349272 -4.3458857045220824  0.
0.011254013328719772 -4.317035672824455  0.
0.04442342559849332 -4.309756652453372  0.
0.07307150065550547 -4.328324499716444  0.
0.08045323082190753 -4.36175089454231  0.
0.062231699614529304 -4.390593100212103  0.
-0.16958175366703965 -4.347739390094497  0.
-0.17683721213224035 -4.3144926269145065  0.
-0.15869934257267998 -4.2857315376801735  0.
-0.1256864924644454 -4.278394906634771  0.
-0.09721231687797861 -4.296835547020863  0.
-0.08993026557168253 -4.330090927268659  0.
-0.10807132242272345 -4.358858051221835  0.
-0.3379237625952693 -4.31733541479714  0.
-0.34511181785060585 -4.284203524840319  0.
-0.3270278145076048 -4.255511004257319  0.
-0.2941358261310289 -4.248125177261524  0.
-0.26579220747248195 -4.266474417056069  0.
-0.2585849244456343 -4.299608291216031  0.
-0.27666085839731364 -4.328297549338524  0.
-0.5052947613583145 -4.287737629201978  0.
-0.5124260431743691 -4.254665498419527  0.
-0.4943599660730955 -4.226028467044881  0.
-0.46152682587674626 -4.2186135829926235  0.
-0.43324361272126416 -4.236898125335531  0.
-0.4260915862537744 -4.269955572368777  0.
-0.4441497433856469 -4.298605896780823  0.
-0.6724664993787993 -4.258607180743526  0.
-0.6795852017790719 -4.2255538755942155  0.
-0.6614927804031145 -4.196926277499205  0.
-0.6286413489539209 -4.189495730224741  0.
-0.6003708085260328 -4.207761418675025  0.
-0.5932533202962559 -4.240801228902455  0.
-0.6113263538647001 -4.2694554380385075  0.
-0.8402185667357052 -4.22970153052939  0.
-0.8473235367006857 -4.196598517836416  0.
-0.8291455074467285 -4.167946839117557  0.
-0.7962033424409942 -4.160518069561969  0.
-0.7678690042031716 -4.178795981588968  0.
-0.7607662495195111 -4.211886345049333  0.
-0.7789223285891022 -4.240554464089808  0.
-1.009347372733103 -4.20073511309251  0.
-1.0164505567617599 -4.167538580156716  0.
-0.9981418748567427 -4.138863492368207  0.
-0.9650423077059667 -4.131446194869861  0.
-0.9366311198252353 -4.149749656517088  0.
-0.9295172127106924 -4.1829184052481585  0.
-0.9477835713154539 -4.21162201931825  0.
-1.1805457023388524 -4.171515121115145  0.
-1.187660375526646 -4.138182432304755  0.
-1.1691641263670849 -4.10943881978039  0.
-1.1358446124592891 -4.102021604858582  0.
-1.107226068532298 -4.1204022935528535  0.
-1.100115859545432 -4.153721230187322  0.
-1.1185671878866068 -4.182504214127226  0.
-1.3543146650996394 -4.142058311973429  0.
-1.3614141660232757 -4.108497562000531  0.
-1.342687525672141 -4.079691994889301  0.