<?xml version="1.0"?>
<VTKFile type="UnstructuredGrid" version="0.1" byte_order="LittleEndian" compressor="vtkZLibDataCompressor">
<UnstructuredGrid>
<Piece NumberOfPoints="759" NumberOfCells="694">
<PointData>
<DataArray type="Float64" Name="displacement" NumberOfComponents="3" format="ascii" >
-0.0022001174779874323 0.027519475998384803  0.
0.0 0.05  0.
0.0 0.05  0.
0.015246450747222404 -5.3169569248024666e-05  0.
0.009014288341919613 -2.1839181964461496e-05  0.
-0.009034614673830238 3.723290605392671e-06  0.
-0.015250317116453513 1.852247123986258e-05  0.
0.0 0.05  0.
0.0 -0.05  0.
-0.0022016192862040302 -0.027527657271060664  0.
0.0 -0.05  0.
0.0 -0.05  0.
0.008942229747504594 0.003323208892707052  0.
0.008722452503531406 0.0066322860899762906  0.
0.008363187040348356 0.009861313840842267  0.
0.007878809367154451 0.012949689960451247  0.
0.0072879307048822305 0.01583591456051802  0.
0.006582210309601184 0.01856394102789105  0.
0.0057942917560302116 0.02103829275078008  0.
0.004931152712577413 0.02323520494486056  0.
0.00399845792298915 0.02511799532648104  0.
0.0030054394466194514 0.026635532615904567  0.
0.0019693942868918976 0.02773427381102251  0.
0.0009123040660091235 0.02837551804486436  0.
-0.00014462341817819417 0.028543463571487664  0.
-0.00117552890751233 0.028258688283177062  0.
-0.0007149928427230731 0.02744875139032558  0.
-0.00032906584609927926 0.02781861109698954  0.
-0.0002178666608499719 0.028587736672103792  0.
-0.000215271986336069 0.029716941812768405  0.
-0.0002495044662155954 0.03109883135920628  0.
-0.00028377797247418866 0.03278926820329459  0.
-0.0002965313111387844 0.034806104371176885  0.
-0.0002791462762811916 0.03703477995804716  0.
-0.00022528105909534025 0.039504610911913575  0.
-0.00014655743135113362 0.04206765135898262  0.
-6.204026520160031e-05 0.04468626395819474  0.
-6.66275768313002e-08 0.04734865708078283  0.
0.0 0.05  0.
0.0 0.05  0.
0.0 0.05  0.
0.0 0.05  0.
0.0 0.05  0.
0.0 0.05  0.
0.0 0.05  0.
0.0 0.05  0.
0.0 0.05  0.
0.0 0.05  0.
0.0 0.05  0.
0.0037769664575415347 0.042956403581389316  0.
0.00606297062699441 0.03722865431380454  0.
0.007961664557425889 0.031832233456824253  0.
0.009579144288375528 0.026677627420843574  0.
0.01111966600245777 0.02144490967064662  0.
0.01246092149037123 0.01661998586049775  0.
0.013602905745423185 0.012116450014547099  0.
0.01449022104683074 0.007885563101995228  0.
0.01505463577672102 0.0038644552528325033  0.
0.01447100267664798 -3.721713155018728e-05  0.
0.013654719120584828 -1.8510068326536056e-05  0.
0.012855776777672022 1.8811723048901416e-06  0.
0.012144040953389433 2.0068725280554434e-05  0.
0.01151470350202445 2.804604263929314e-05  0.
0.011011562305956898 3.202240849461531e-05  0.
0.010624380830115826 3.112949743467018e-05  0.
0.010354771360125739 2.8071963414318262e-05  0.
0.010211757090599818 1.937651833324158e-05  0.
0.01015952193946216 1.2878648340509868e-05  0.
0.010051786955873339 3.4846815782847497e-07  0.
0.0 0.05  0.
0.0 0.05  0.
0.0 0.05  0.
0.0 0.05  0.
0.0 0.05  0.
0.0 0.05  0.
0.0 0.05  0.
-0.003217878727722966 0.02634786803080738  0.
-0.004208911915166941 0.024740931204370473  0.
-0.005178989729335469 0.022692267857332585  0.
-0.006093884426065253 0.020212950912699045  0.
-0.006942246170473996 0.01733887003826976  0.
-0.007669088451125381 0.014190223602650221  0.
-0.008261916884402353 0.010797314067890853  0.
-0.008687399034856744 0.007251847363574086  0.
-0.008946289958503289 0.00365409537495521  0.
-0.010030703694629672 -5.93374954338372e-06  0.
-0.010159697394470802 -9.275361349394224e-06  0.
-0.010198574629930056 -1.5155578782243108e-05  0.
-0.010296253931230955 -2.9190682423001006e-05  0.
-0.010466355660650678 -3.1370240448292265e-05  0.
-0.010748356938058902 -3.931703134465874e-05  0.
-0.011149098322006126 -4.411273731247671e-05  0.
-0.011646963561198698 -3.945593131261166e-05  0.
-0.012245934433118739 -2.8648923127907642e-05  0.
-0.012937288896988699 -1.4949499229122587e-05  0.
-0.013696846313588005 -2.7156144867008072e-06  0.
-0.01448818606485281 8.508659465176408e-06  0.
-0.015037695699019018 0.0040885235803922995  0.
-0.014428974932151482 0.008253432099343467  0.
-0.013495332201919619 0.012594835562581152  0.
-0.012321351847846829 0.017159927222502286  0.
-0.010977537218171442 0.02195690257061972  0.
-0.009497348583125356 0.026961168219523855  0.
-0.007876179620493001 0.03210329282230103  0.
-0.006005207772890143 0.03738734465365131  0.
-0.003743748274607265 0.04302615907213888  0.
0.0 -0.05  0.
0.0 -0.05  0.
0.0 -0.05  0.
0.0 -0.05  0.
0.0 -0.05  0.
0.0 -0.05  0.
0.0 -0.05  0.
0.0 -0.05  0.
0.0 -0.05  0.
0.0 -0.05  0.
0.0 -0.05  0.
8.912598093105756e-07 -0.04737951698324694  0.
-5.9921898481064015e-05 -0.04471369182908715  0.
-0.00014477265039972883 -0.042067407574417355  0.
-0.00022052751819919374 -0.03955658782062082  0.
-0.0002721128997892329 -0.037113027607594946  0.
-0.00029156768558392634 -0.034831552781268656  0.
-0.0002777545065525475 -0.03285805327633337  0.
-0.00024392398602595503 -0.031228327551739463  0.
-0.00021278118592077744 -0.029769941136156983  0.
-0.0002152614995420015 -0.028589712964567228  0.
-0.00033128050934878454 -0.02781069962353603  0.
-0.0007315195664002545 -0.02744950493782244  0.
-0.0011808569269157946 -0.028257621115515153  0.
-0.00013582700145247826 -0.028549747713950416  0.
0.0009149083334281221 -0.02837673540717178  0.
0.0019642157519039996 -0.027740016993394727  0.
0.002990373654407409 -0.026656729367785077  0.
0.003978677128586479 -0.02515591576706781  0.
0.00491332475822844 -0.02328178020369975  0.
0.005782239765114793 -0.021080415520795023  0.
0.006564470977272726 -0.018611796395471503  0.
0.0072577110071493315 -0.015927885927673694  0.
0.007863131893156263 -0.01299327619404634  0.
0.008354665415844679 -0.00988639914940414  0.
0.008716196303854638 -0.00665957757673851  0.
0.008938196224745992 -0.003360567105699399  0.
0.015040481896645929 -0.004004921793119749  0.
0.01447231187581584 -0.007981922777419673  0.
0.013596205241626878 -0.012145718926254023  0.
0.012462145865354865 -0.016616962930152628  0.
0.011151084599121432 -0.021337890050104266  0.
0.009663650247250076 -0.026399397438404297  0.
0.008009236406491232 -0.031688832749608806  0.
0.006094741612707911 -0.037143379220349416  0.
0.003804308462806698 -0.04289348677551128  0.
-0.008948603438319337 -0.003668877209967225  0.
-0.008686527309802116 -0.007302273977892101  0.
-0.00825544682776447 -0.010846825307489774  0.
-0.007664804083637899 -0.01423304099345394  0.
-0.006921242625416045 -0.017429032403894817  0.
-0.006080191142661852 -0.02025299228048097  0.
-0.005161107316113353 -0.02270672457663223  0.
-0.004196158265524951 -0.02474638105664189  0.
-0.003206580132732817 -0.02635647154680701  0.
0.0 -0.05  0.
0.0 -0.05  0.
0.0 -0.05  0.
0.0 -0.05  0.
0.0 -0.05  0.
0.0 -0.05  0.
0.0 -0.05  0.
-0.003730730418868469 -0.04305610947702655  0.
-0.005989398142219684 -0.03742799733132861  0.
-0.007859079490917686 -0.03215250894728652  0.
-0.009477332244125386 -0.027024053505542833  0.
-0.010956717259540635 -0.022025839853331147  0.
-0.012307293794411278 -0.01720899435723818  0.
-0.013490767643571258 -0.01261209599593117  0.
-0.014431435631144955 -0.008240813196963946  0.
-0.015041676217136823 -0.004056644362599671  0.
0.005561692008418507 0.0287463781940349  0.
-6.699559248886167e-05 0.04014405405325892  0.
5.358003469139227e-06 0.04034108267511707  0.
8.641965555559546e-05 0.04003091450166602  0.
0.00026878986379666415 0.03924358733882854  0.
0.000631273772772603 0.03809110907473101  0.
0.0012370386688891084 0.03659302471369113  0.
0.002150611696441247 0.03471230343088816  0.
0.003486131796712459 0.032275555407352774  0.
0.005504921174486454 0.02508381486135075  0.
0.00534175882808412 0.022433845058599536  0.
0.005138874134037897 0.02031760135057429  0.
0.004923949120094186 0.01858892250429333  0.
0.004726473489745561 0.017216977606877133  0.
0.004594973311665051 0.01623992615477025  0.
0.004625041597669297 0.015780293029142477  0.
0.0050232337576065905 0.01612858340899721  0.
0.0011998306029243372 0.0454585218573958  0.
0.0025631592701546345 0.040594736487876606  0.
0.003999473022253504 0.03522247169085892  0.
0.008335548928845377 0.027816578513044483  0.
0.007041586836183347 0.02847786695374547  0.
0.012646673493987045 0.004035910274799937  0.
0.012029918863391166 0.008175806923421326  0.
0.011005145860169456 0.01252506062184184  0.
0.00961599945509688 0.01714818149396203  0.
0.007856675416179265 0.022321021330519587  0.
0.003852849408050008 0.01891496762188374  0.
0.002803957983556452 0.02158721993559977  0.
0.0019178931184991646 0.02403402518470878  0.
0.0012079088337258494 0.02611626530684771  0.
0.000667968423841541 0.02768956844753773  0.
0.00026842132121952274 0.028642672207496705  0.
-4.3730419646820985e-05 0.02891553680489374  0.
-0.0003381265834991604 0.0285079929857126  0.
0.003371864793059586 0.01860454315417945  0.
0.002267200129909428 0.021359334598427836  0.
0.0013723233680110808 0.023925739317000275  0.
0.0007210045217482056 0.02615598347276459  0.
0.000310952305919536 0.027881399247596316  0.
9.509093439562112e-05 0.028961318349854465  0.
-1.002965308554617e-05 0.02930671713519287  0.
-0.00011193511851697394 0.028918999748998222  0.
0.003310367553103358 0.01908780479865111  0.
0.0021743575501753077 0.021858126298396813  0.
0.0012617027782052181 0.024448799106905023  0.
0.0006080695264049727 0.026715608258022917  0.
0.00022124840736469998 0.028498420399187662  0.
4.99022743232028e-05 0.029645730748671623  0.
-3.0758203611908987e-06 0.030075201326127846  0.
-5.5244436029680225e-05 0.02969323056164632  0.
0.0034163873901475786 0.020115051028633972  0.
0.0022561864950205695 0.022897594555896864  0.
0.0013149052310708726 0.025480192387127266  0.
0.0006396730030754181 0.02773846322345756  0.
0.00023842362295786786 0.029529300132185556  0.
5.8001122424917666e-05 0.03070420005216929  0.
-1.5466912868257448e-06 0.03121414831509617  0.
-5.416679376788953e-05 0.030823741822184232  0.
0.003575561026157066 0.021576882849962255  0.
0.002380089177820674 0.024383638242471594  0.
0.001420672999722321 0.02693805936428617  0.
0.0007201779486153343 0.029157597088223308  0.
0.00029079406460353436 0.030923316994979456  0.
8.642771455404312e-05 0.032096711933256375  0.
3.059976530233951e-06 0.03250133307691042  0.
-7.095748266390387e-05 0.03213985959442193  0.
0.0037238189196027276 0.023442768327076674  0.
0.0024824128419583215 0.026280287123971253  0.
0.0014977283262389255 0.028792398724581145  0.
0.000777655304927547 0.030940066226294846  0.
0.0003350780723358303 0.03263302526376049  0.
0.00010890352354580032 0.03371399505146042  0.
5.548231061240658e-06 0.03408733435771735  0.
-8.685737089420631e-05 0.03375616265266985  0.
0.0038128377033861518 0.025748989842227926  0.
0.00251278156926235 0.028599409719738983  0.
0.0015114064731849871 0.031022409968611393  0.
0.0007925445022765102 0.033041314442866045  0.
0.00035005497461368016 0.03461445487997669  0.
0.00011934411652593475 0.03564311361755483  0.
7.335266671224518e-06 0.03594318637622114  0.
-9.437895880435486e-05 0.035681589880262925  0.
0.0037745498807635835 0.028612986663236962  0.
0.002418938404924585 0.031389782492999126  0.
0.0014251756279040548 0.033628250345396266  0.
0.0007434227606618353 0.03543591452380554  0.
0.000327573182053794 0.03682919888837468  0.
0.00011134949712034014 0.03773401469225206  0.
7.2043245307705506e-06 0.03804332948369  0.
-8.833845336700662e-05 0.037789175194296636  0.
-3.650777427415365e-05 0.04254423194178941  0.
-5.23353941060751e-06 0.04499259618485348  0.
1.3623871130021064e-05 0.04749546747400433  0.
2.2076356408709544e-06 0.042685236702640614  0.
-3.8094956354206634e-07 0.04506384073957649  0.
-1.3037087895892161e-06 0.0475087501484091  0.
4.8262671537626505e-05 0.04240203779126217  0.
9.438529687206167e-06 0.04487789486245624  0.
-1.4109572780596494e-05 0.04741933980714313  0.
0.00017789815657512625 0.04181334368947565  0.
7.913644871819264e-05 0.044494464522018655  0.
5.2454234316170844e-06 0.047235810905514874  0.
0.0004550295330485205 0.04095272822436313  0.
0.0002551634579329968 0.04393708456699744  0.
8.223632979917296e-05 0.04696998007844972  0.
0.0009311051652495203 0.0398449411072096  0.
0.0005726553100299787 0.04323000035178281  0.
0.00023620991618705835 0.04663524290928904  0.
0.001651218267339965 0.038498248092967285  0.
0.0010557209122562515 0.04239962964958437  0.
0.0004738702611674209 0.04625131403065268  0.
0.002664899136039363 0.036915358801452615  0.
0.0017202769989907876 0.041486085732298936  0.
0.0007974039911703238 0.045842642957834294  0.
0.0016852092904938317 0.04510121056279442  0.
0.0023681850281652883 0.04464799563446094  0.
0.003521577228542044 0.03987783289337666  0.
0.004720235076120513 0.038907995269488134  0.
0.005301585340057068 0.03431147699973941  0.
0.0066234776911218785 0.033292464578398705  0.
0.009976817482399305 0.02240699529130337  0.
0.011432066506716895 0.017433490953330254  0.
0.012677299060820026 0.012761893011601886  0.
0.013647857209123183 0.008306675893405254  0.
0.014259664006593788 0.004076347925173621  0.
0.00887152203081247 0.022742932153142423  0.
0.010478844478063755 0.017554677291615653  0.
0.011809400601733792 0.012813486230806283  0.
0.012821177781973754 0.008366349710973095  0.
0.013451341290037618 0.004119880249944606  0.
0.011931801132542792 0.0038548105299233025  0.
0.01131349099850169 0.0035945011166090774  0.
0.010806507943220956 0.003307701478340058  0.
0.010413223751544295 0.0030142182764999153  0.
0.010151624811569946 0.002754312052503438  0.
0.010006373698595791 0.0025392779502912527  0.
0.00995509568027301 0.0024274027658825934  0.
0.009863130759928876 0.002521560585880183  0.
0.011338337493164912 0.0077942266863922196  0.
0.010702668082474885 0.007223978260461047  0.
0.01021004364534795 0.006633399521607088  0.
0.009821889808252235 0.006045472975523789  0.
0.009564634989119013 0.005533980709585753  0.
0.009409972992812252 0.005114198984867578  0.
0.009361684813017173 0.00489913366683794  0.
0.009326681512309875 0.005093645040868905  0.
0.010319713828394021 0.011866157444574714  0.
0.009729843511185407 0.010955083045763961  0.
0.009265599381564165 0.010044403045340076  0.
0.008894329760337123 0.009151996803659005  0.
0.008627965021073042 0.00836819758464288  0.
0.008474873515893475 0.007765594718827541  0.
0.008439433989281929 0.007466290470717804  0.
0.008492608002537098 0.0077428775437383135  0.
0.008956333306329178 0.016062740036374937  0.
0.008435608627514364 0.01475080402843356  0.
0.00802584051779695 0.013479135071971706  0.
0.007690845415325316 0.01228667686552821  0.
0.007439380454064691 0.011272554589378822  0.
0.007288953135269449 0.010512266638249  0.
0.007273333926253768 0.010143067486391912  0.
0.007438427850003459 0.010479001736177876  0.
0.007323097117145326 0.020528314174820914  0.
0.006934477236824683 0.018641546986675053  0.
0.006608099863184198 0.016926743218954064  0.
0.006326803235717787 0.015444400230685692  0.
0.006100037797317524 0.01422895465800408  0.
0.005959419176737405 0.013341456327523298  0.
0.005969882922749042 0.01291785314584032  0.
0.0062590132707676625 0.013280532326118604  0.
-0.0042414015519199955 0.03030803610444069  0.
-0.0005656396376703588 0.03839966391900937  0.
-0.001181289988184303 0.036887998571503974  0.
-0.0022995300743088244 0.03419108589003313  0.
-0.00290139132744229 0.0365011317245951  0.
-0.0017753008153658107 0.04146447523568006  0.
-0.0007990299035501719 0.04588305222726333  0.
-0.00426125820119448 0.01808609846148162  0.
-0.003670116503030376 0.01796938378727258  0.
-0.0034790417546976694 0.018604935969793922  0.
-0.0035094845985369928 0.019548974634011198  0.
-0.003622912170519886 0.020878626931905456  0.
-0.003770241138573626 0.022643404200943483  0.
-0.00393959664525577 0.024701338550686857  0.
-0.004131845795855463 0.02700534878960782  0.
-0.011998837212016323 0.004221820879514913  0.
-0.011258842599462634 0.008590470040979915  0.
-0.010082967396863306 0.01319643376741129  0.
-0.008501558285648131 0.018158542848570273  0.
-0.006573186698046397 0.02364109043293536  0.
-0.008282483388116052 0.028239146341640684  0.
-0.00704233302008879 0.02915727793762456  0.
-0.005748981986214156 0.02976510571294787  0.
-0.0004630407729201688 0.04631722043996066  0.
-0.00021860517853578492 0.04677374571785224  0.
-6.935557826514371e-05 0.0471261836303026  0.
-0.001057941952738363 0.04247280262111485  0.
-0.0005345788975994999 0.04347389991011678  0.
-0.00022242452617967073 0.04419244897427934  0.
-0.001705109090081885 0.03839771779041539  0.
-0.0008685731354845646 0.040242974871084275  0.
-0.0004031497889751366 0.04128045177466584  0.
-0.0006711962293398012 0.035678054664959456  0.
-0.0007094644616058204 0.033217195754131054  0.
-0.000689027830047379 0.031107353034698252  0.
-0.0006364064988570474 0.02934588368869037  0.
-0.0005858246661363278 0.02795870925495701  0.
-0.0005914944408788045 0.026834843148843386  0.
-0.0007384634850260704 0.02607705557369167  0.
-0.001282742493821241 0.02579552705050449  0.
-0.0013742304198851786 0.03366563522239958  0.
-0.0014250793801617856 0.03099051776388757  0.
-0.0013892443256169561 0.028784910540620337  0.
-0.0013141197721291576 0.02698097066479021  0.
-0.0012460811578829149 0.025575004608398327  0.
-0.0012503971784635695 0.024488240007254292  0.
-0.0014276880220291987 0.023755524943086866  0.
-0.002057145387466441 0.023612403008654533  0.
-0.0024897679747917087 0.03087776326819087  0.
-0.0025065938959616626 0.02814395235967131  0.
-0.002423795900304426 0.025941201593109843  0.
-0.0023185927225695133 0.024114553771963698  0.
-0.002230336266765686 0.02271784305442559  0.
-0.002214039583567489 0.021727605201841173  0.
-0.002418376643018751 0.021002920756944054  0.
-0.003065827731801628 0.021025784359535876  0.
-0.005599733069078988 0.015010022631626752  0.
-0.006952001643024792 0.011864504717727879  0.
-0.008191861048790503 0.008731744607967488  0.
-0.009189447044089366 0.0056658252095344325  0.
-0.009814148509612496 0.002809364980347541  0.
-0.005123379732291131 0.014769560536433952  0.
-0.0066422055772421785 0.011552036857806713  0.
-0.008058607437159294 0.00842264164271263  0.
-0.009192323206865614 0.005471751582154804  0.
-0.00991180982010234 0.002689052320621433  0.
-0.004968953920937666 0.01529497403610632  0.
-0.006531544797906895 0.011994508843188647  0.
-0.008016449461581528 0.008726969217268487  0.
-0.009191933578275248 0.005668869124107342  0.
-0.00994474358327628 0.002780346456386487  0.
-0.005003633477753797 0.016194247016875586  0.
-0.00657671575572112 0.012805525905857526  0.
-0.00808539626175306 0.00933919927301648  0.
-0.00927579367947937 0.006069903651628196  0.
-0.010034968466304247 0.0029723700653780105  0.
-0.005147634993846859 0.017372978353420714  0.
-0.006746592145985776 0.013789348996510539  0.
-0.008269383794755154 0.010088164398569343  0.
-0.009456926941700531 0.006569997758156344  0.
-0.010210899185421665 0.003220952751131074  0.
-0.005344772406326261 0.01892048305203374  0.
-0.007014123496080155 0.014901780652874818  0.
-0.00854227764754606 0.010905235224332132  0.
-0.009735170989637826 0.00711164350310842  0.
-0.01048886284500282 0.0034889563047382378  0.
-0.005639106324085524 0.020461259511967752  0.
-0.007382588984081447 0.016042413094275634  0.
-0.008940706146454354 0.01175226453240414  0.
-0.010134390555945323 0.00766499173157807  0.
-0.010890791524638802 0.003760694754058232  0.
-0.006030122991518915 0.022055142971006372  0.
-0.007863972473306138 0.017176546440880066  0.
-0.009455545405146818 0.012562938420097161  0.
-0.01064810126110045 0.008181727172364326  0.
-0.011390608118231085 0.004015600305139032  0.
-0.012696957907836344 0.0043516440211833415  0.
-0.013464595867464957 0.004381539664677596  0.
-0.014264482892113258 0.0043001220600941276  0.
-0.01199646460074867 0.00884173706356278  0.
-0.012788300499978164 0.008881102626532588  0.
-0.01360698689876289 0.00867788555088901  0.
-0.010853893181777955 0.013550568284037345  0.
-0.01170382828027449 0.013545081540590373  0.
-0.012597412622492173 0.013222449268776163  0.
-0.009364030605958782 0.01853675933973746  0.
-0.010328092781582456 0.018458251640489826  0.
-0.011325664371931471 0.017985485354632548  0.
-0.007627562856332461 0.023923164422812167  0.
-0.008748229657084178 0.023660643703090557  0.
-0.00987181062120451 0.02298763204199728  0.
-0.0065871120957367475 0.03359407290349728  0.
-0.004699213318653899 0.03906894256971114  0.
-0.0023576644874836153 0.04471351435253484  0.
-0.005322661536784017 0.03466163110023513  0.
-0.0035269864081757755 0.04004614014987347  0.
-0.0016812627215208671 0.045169530240659346  0.
-0.004101611853154823 0.03548936342926957  0.
-0.0025965527807159067 0.040707011877025544  0.
-0.0012020685913572019 0.045511077419613626  0.
0.005556693771263614 -0.02874910021498891  0.
-6.524649927921829e-05 -0.040162566957822964  0.
6.46648535068954e-06 -0.04038690204496859  0.
8.74526353305297e-05 -0.04012773208692094  0.
0.00026989687948458525 -0.03931979427650924  0.
0.0006309692886496799 -0.03816284327641682  0.
0.0012336757776780897 -0.03666288826875113  0.
0.0021441268950091693 -0.03477339167506977  0.
0.003478853064459428 -0.0323139745436346  0.
0.004006128820086979 -0.03521540743608683  0.
0.0025720460335489337 -0.04057452466245772  0.
0.0012038687523868283 -0.04544371086821441  0.
0.0049936502417473605 -0.01615651110267946  0.
0.004602988015178598 -0.01582783875634164  0.
0.0045713438564248705 -0.01630762849357735  0.
0.004698909311666584 -0.017297537625578428  0.
0.004894068343886461 -0.018670697281360945  0.
0.005109742543310598 -0.020389104238514724  0.
0.005315440213017104 -0.02248434447547371  0.
0.0054857068236782635 -0.025106186610671134  0.
0.012640672890238916 -0.0040310985669582584  0.
0.012013867057684497 -0.00816646758108812  0.
0.010993147995754585 -0.012512528420255672  0.
0.009603908801282224 -0.01713511797519312  0.
0.007847396512803695 -0.02231143736267943  0.
0.008359626435721784 -0.027731818850715684  0.
0.007049716238142556 -0.028440536524278373  0.
0.0007975671372996607 -0.045847295643749224  0.
0.00047251709700519504 -0.04626218888456361  0.
0.00023452149097696128 -0.04665161407124822  0.
8.122090449490523e-05 -0.04699393118808055  0.
4.546777856458378e-06 -0.047273932369829005  0.
-1.4294682141870966e-05 -0.04748259188483045  0.
-1.0756315484106776e-06 -0.047613989367032435  0.
1.3901086546365758e-05 -0.0475545332998551  0.
0.0017231557404122117 -0.04149545672118651  0.
0.001054610389669113 -0.042420301573346274  0.
0.0005698205641097221 -0.04326162419524324  0.
0.00025212151509366125 -0.04398266722852516  0.
7.663103869873903e-05 -0.04456337236381529  0.
7.802589982589073e-06 -0.04499029098752463  0.
-2.1413715413238237e-07 -0.04515483377455088  0.
-4.240776461345514e-06 -0.04504550990650799  0.
0.002664694223145472 -0.036933671525979705  0.
0.0016461630684269115 -0.03853268832187808  0.
0.0009250181190436483 -0.039893839666746304  0.
0.0004501525614326622 -0.04101542894599228  0.
0.00017478450940249828 -0.04189672600402266  0.
4.67065908979561e-05 -0.042525430462651  0.
2.559366436047702e-06 -0.042699852644910254  0.
-3.572583697317757e-05 -0.04255611707234497  0.
-8.400350633062232e-05 -0.037908703185654966  0.
-9.045396497982249e-05 -0.035757765567451014  0.
-8.422573360068813e-05 -0.03384813467374376  0.
-6.909849865683572e-05 -0.03227737963864441  0.
-5.335897916398007e-05 -0.03081511881011616  0.
-5.4147516480195575e-05 -0.02966913719672157  0.
-0.00011719637081845807 -0.028892957180080378  0.
-0.0003485711541048049 -0.028496390619831048  0.
9.676191864628713e-06 -0.0381712416537899  0.
1.0748383100362403e-05 -0.03606646457567046  0.
9.033603442868165e-06 -0.03417231352870122  0.
4.054876961090273e-06 -0.032608820399673305  0.
6.298078980038565e-07 -0.031168080185330408  0.
-2.9594275585858184e-06 -0.03003090094365841  0.
-8.659404143399218e-06 -0.029287089898163286  0.
-3.936411161607472e-05 -0.028908346624321686  0.
0.00011564808818102073 -0.03783164383897069  0.
0.0001249248171286251 -0.03569594035265303  0.
0.00011535818327947065 -0.03377306196792196  0.
8.84452341238958e-05 -0.03209576921152287  0.
6.159418440558228e-05 -0.030717331251013613  0.
5.1045383658246547e-05 -0.029631334002744283  0.
9.758630933163241e-05 -0.028950618932810923  0.
0.00027691366398004325 -0.028636951282740557  0.
0.0003339496272544872 -0.03688712601888873  0.
0.0003575180669759453 -0.034651602320806406  0.
0.00034507468008552014 -0.032677064140075505  0.
0.00029644784989112826 -0.030949688719590338  0.
0.0002418852877388674 -0.029559914438063082  0.
0.0002194923975797155 -0.02851882529696321  0.
0.00030806569600504895 -0.027898945175571774  0.
0.000670754408066625 -0.027694878823492045  0.
0.0007494921490526485 -0.0355089420330314  0.
0.0007978046522828286 -0.03311356688785725  0.
0.0007843155270714559 -0.031018845383876923  0.
0.0007267143943745311 -0.029241442125896796  0.
0.0006410578540656197 -0.027810907403187046  0.
0.0005960417222357659 -0.02678077215636031  0.
0.0007060873182664727 -0.026212335025583122  0.
0.0011994840746078796 -0.026145549896631322  0.
0.0014326729251982013 -0.03372064312768838  0.
0.0015129018938734148 -0.03113475934888787  0.
0.0015027547477807321 -0.028915999826226967  0.
0.0014132867962800722 -0.027059582983501657  0.
0.001300382812498141 -0.025594656360206552  0.
0.0012315441787774453 -0.02455590602894039  0.
0.0013421465070923757 -0.02401992691485657  0.
0.001900881981760919 -0.024090745632528575  0.
0.002425528287569965 -0.03149299786748053  0.
0.0025122871734873952 -0.028723191916789785  0.
0.0024707730437397843 -0.026411187713453327  0.
0.0023552300359320436 -0.0245170491512766  0.
0.0022180320939550464 -0.023030876618062864  0.
0.0021316657437953244 -0.021984052376668804  0.
0.0022285075535206657 -0.021465709145507893  0.
0.0027879037075814422 -0.021654226659571632  0.
0.003761918563252649 -0.028681576625784938  0.
0.0037899147504324394 -0.025839106714174612  0.
0.0036914490284299106 -0.023546725279892742  0.
0.0035352099047041377 -0.021687200779070367  0.
0.003372264000507633 -0.02022471080160338  0.
0.0032681595912027748 -0.01918772680957214  0.
0.003340703265504157 -0.018683368517338476  0.
0.003843198156290519 -0.018961187041478193  0.
0.006228391606401439 -0.013292646620439387  0.
0.007423778813783467 -0.010464842091571894  0.
0.008491088476817416 -0.007713050822160964  0.
0.0093314463422122 -0.005064711285418458  0.
0.009867189195561189 -0.002511186212263089  0.
0.005952622467681692 -0.012949480039656588  0.
0.007273715412053898 -0.010138559230256125  0.
0.008450547758016104 -0.00743541136919151  0.
0.009373119133549799 -0.0048607396888066  0.
0.009960195046028623 -0.0023956034511639517  0.
0.005950102919023084 -0.01338995329769599  0.
0.0072966116016218024 -0.010517598869988565  0.
0.008492642120079578 -0.007742244224240384  0.
0.009427838920426512 -0.005072014205284386  0.
0.010013732521359309 -0.002499229940425794  0.
0.006090864013677502 -0.01428626235649056  0.
0.007444672564005347 -0.011307105718058295  0.
0.008648228350447264 -0.008347123834320909  0.
0.00957364169909383 -0.005477798937156437  0.
0.010156771784467179 -0.002698719500680174  0.
0.006314759718886275 -0.015499075576051062  0.
0.00769490083678544 -0.01229365335604913  0.
0.008912753880940531 -0.00911177864134291  0.
0.009854060449620696 -0.005997697609696005  0.
0.010431787240622721 -0.002956892782200345  0.
0.006593234242381897 -0.016968158561742417  0.
0.008024523809755187 -0.013464190191854035  0.
0.00927714795427524 -0.009984505238334452  0.
0.010224834702590637 -0.006571030761385327  0.
0.010810808163757792 -0.0032433714585336187  0.
0.00691779367158866 -0.018662762817368204  0.
0.008435332538973142 -0.01474841024121079  0.
0.00973019345927819 -0.010891611069007946  0.
0.010701827872532441 -0.007157512972310502  0.
0.011310776869981689 -0.00353437334491586  0.
0.007307074386738406 -0.02052339611495451  0.
0.008946603449576504 -0.016035351656243337  0.
0.01029685686886189 -0.011772169526517277  0.
0.011305935532175472 -0.007715551693974386  0.
0.011921351259721387 -0.00380767897599928  0.
0.013441422627751208 -0.00416153641501783  0.
0.014246006501053843 -0.004163140142548128  0.
0.012803438099862688 -0.00842160178345967  0.
0.013626821301070376 -0.008366059606340114  0.
0.011790407669551509 -0.01284532562676376  0.
0.012669694987882424 -0.012741496923901287  0.
0.010466695065818004 -0.01756190244942703  0.
0.01142240950654717 -0.01745204179908436  0.
0.008871503478488318 -0.0227118883741842  0.
0.009988279551916059 -0.022355890338525034  0.
0.006645478499617753 -0.03323703492414617  0.
0.004748592981905019 -0.038842023707588526  0.
0.002390290802269634 -0.044600840685397894  0.
0.005318661070976395 -0.03426698492517256  0.
0.0035422459338029432 -0.03982317466557418  0.
0.0016982953061753488 -0.045064592610613664  0.
-0.00423517739747631 -0.030351098659774145  0.
-0.0005554565169515724 -0.038476697672707526  0.
-0.0011788867149742513 -0.03684330129552996  0.
-0.0022898576923894545 -0.0342378208590106  0.
-0.004142061942747442 -0.026955456664207574  0.
-0.0039662255475410805 -0.02449238309318987  0.
-0.003774227640610513 -0.022592135492640282  0.
-0.00361126539272779 -0.020966490011771758  0.
-0.003502116495147149 -0.01959161895784886  0.
-0.0034822079761414153 -0.018607766039166803  0.
-0.003683666601231343 -0.017936585870581764  0.
-0.004255798666345346 -0.018127068449251733  0.
-0.0007912999215626026 -0.04590089099785739  0.
-0.0017625654505592989 -0.041493934999515904  0.
-0.0028909964770896268 -0.036529533972265854  0.
-0.008266139796676059 -0.028295178651113487  0.
-0.007030472039153075 -0.029204752803902626  0.
-0.005740628346465666 -0.02980722672136063  0.
-0.012004998616042959 -0.004281852653346741  0.
-0.011276910336383292 -0.008661380698828124  0.
-0.010092382098720223 -0.013285827535502361  0.
-0.00850304195871276 -0.018210453614993502  0.
-0.006572289851317556 -0.023685042935263058  0.
-0.00302742033088485 -0.021046536956657844  0.