<?xml version="1.0"?>
<VTKFile type="UnstructuredGrid" version="0.1" byte_order="LittleEndian" compressor="vtkZLibDataCompressor">
<UnstructuredGrid>
<Piece NumberOfPoints="240" NumberOfCells="209">
<PointData>
<DataArray type="Float64" Name="displacement" NumberOfComponents="3" format="ascii" >
0.0 0.0  0.
0.0 0.0  0.
0.0 0.0  0.
0.0 0.0  0.
0.0 0.0  0.
0.0 0.0  0.
0.0 0.0  0.
0.0 0.0  0.
0.0 0.0  0.
0.0 0.0  0.
0.0 0.0  0.
0.0 0.0  0.
-0.33667757627086875 0.27037520802290904  0.
-0.10973744694657254 0.047714678147247114  0.
-0.051767714723550955 0.01190680439337528  0.
-0.00871766660536678 0.02462729508334653  0.
0.020362105950520102 0.05335420188664227  0.
0.04047494306683375 0.088661256493747  0.
0.052372541426273976 0.12425010334287794  0.
0.056794699786005154 0.15558765643665137  0.
0.05454826290351224 0.17865883131588534  0.
0.04700251707138444 0.18999030100805347  0.
0.036745316751708654 0.18746361842065226  0.
0.025522333414643054 0.1690627260032953  0.
-0.6705794465751383 0.4125572187053522  0.
-0.3046736294516997 0.21607387491101568  0.
-0.13036725981217778 0.12186936533308083  0.
-0.031175106384155923 0.1168101594128829  0.
0.036992241681186616 0.1501317356008799  0.
0.08300639237292017 0.20016757821306191  0.
0.11113653907815424 0.25490587658727754  0.
0.1231371600178149 0.30581410914486956  0.
0.12053191423959402 0.3460099332003943  0.
0.10553868931874824 0.3697546337544501  0.
0.08207547721603668 0.3730152597083551  0.
0.056272836764309185 0.3557423497633228  0.
-0.9842146763152994 0.5785789022181415  0.
-0.5322063108341594 0.4060186398083423  0.
-0.25492828766483766 0.3031110051957313  0.
-0.08015910869000852 0.27456354949173783  0.
0.03722684552502181 0.2972458276370227  0.
0.11739910699577069 0.34652018317458894  0.
0.16811401076791577 0.406489463322915  0.
0.19320083993589923 0.465784499596006  0.
0.19505365576377198 0.5154096185819143  0.
0.17640316219475768 0.5479436410656938  0.
0.14181685909721098 0.5578683748465939  0.
0.09938052801013583 0.5433141260806383  0.
-1.289393258936086 0.7723048952193011  0.
-0.7769884846614783 0.6243063721713207  0.
-0.415105116532693 0.5263431502404017  0.
-0.16424681522070217 0.48694586832815756  0.
0.011325081352396424 0.49537059052149807  0.
0.1336774985393102 0.5349168719777259  0.
0.21444474815092965 0.5900031792053788  0.
0.25952507245549167 0.648231039622477  0.
0.2724585101274503 0.6994618811542584  0.
0.25637297440834134 0.7351741042308276  0.
0.2157632909525629 0.7484707834730228  0.
0.15854131446145972 0.7350538083125523  0.
-1.5927448207971193 0.9981831377832577  0.
-1.0340916506998359 0.8725395561025082  0.
-0.6038589946315186 0.7858576975793424  0.
-0.28306633751893756 0.7435968285125157  0.
-0.04701753433611134 0.7412959949190974  0.
0.12364680945175013 0.7684407484648742  0.
0.24144892494704753 0.8129518571399565  0.
0.31383679185921826 0.8633998369955483  0.
0.3453443664714817 0.9096689300866797  0.
0.3394392008697968 0.942837188182116  0.
0.30017106086725215 0.955123895690182  0.
0.23410137189045752 0.9402603074266589  0.
-1.8990965235573747 1.2586541338679023  0.
-1.302485040918965 1.1537227114660082  0.
-0.8169815783107844 1.0805671460077542  0.
-0.4347878258580512 1.040680247261648  0.
-0.14030737470525603 1.0318628064914637  0.
0.081361370309136 1.0478300612615117  0.
0.24152696059548928 1.079988513199955  0.
0.3478696858487458 1.1190552039876578  0.
0.4054400569414541 1.1559379278939577  0.
0.4178744053391085 1.1820669367794177  0.
0.38867614065845396 1.1894508033459055  0.
0.3227253883922385 1.1707549165011668  0.
-2.2118610861614316 1.556308266542567  0.
-1.582872458804335 1.4710615400392006  0.
-1.0524368072928743 1.4120423031846812  0.
-0.6177321683800594 1.37757751509112  0.
-0.2694230935886645 1.365957100686699  0.
0.0029843913907080257 1.373365829241855  0.
0.20851531983806593 1.3939973139686985  0.
0.3540065440464496 1.4208201567328762  0.
0.4443361264044917 1.4462876552087236  0.
0.48303015704846863 1.4627621636922565  0.
0.47304642998959534 1.4626803022271344  0.
0.41776818759238843 1.438554329005155  0.
-2.5334599379946026 1.8939646729232995  0.
-1.8766708730893946 1.8279475940511545  0.
-1.3096829369565592 1.7830332132682876  0.
-0.8309272323358603 1.7556781588502057  0.
-0.4347078677836547 1.7440917058685217  0.
-0.11404157206005631 1.7458364639972899  0.
0.13759213067004428 1.757083692576339  0.
0.32555607370743883 1.7727389601713024  0.
0.4539731862555516 1.7868576086309456  0.
0.5259310257232914 1.7930182635255312  0.
0.5438422094625754 1.784524586001977  0.
0.5099637625124518 1.7544238338343356  0.
-2.865535148761142 2.2746483762375487  0.
-2.185480810048125 2.2277984407004543  0.
-1.5891219872179616 2.196799171019288  0.
-1.074165603112405 2.1774516228361986  0.
-0.6365486742644095 2.1679350185676842  0.
-0.27164194866825636 2.16664693700836  0.
0.024885078799878835 2.171130119145188  0.
0.2567174116116119 2.1778051961742904  0.
0.42685494639878435 2.1821459865295845  0.
0.5376641197877887 2.1789660829132567  0.
0.5909744660742171 2.162624573084772  0.
0.5882536237925341 2.1270849234970695  0.
-3.2090631121330992 2.701456880412143  0.
-2.5107685507656283 2.673903119759362  0.
-1.89163961079956 2.65667448594991  0.
-1.3478431081583024 2.6458354385378287  0.
-0.8756022378535131 2.639812519528435  0.
-0.4715347137257006 2.6376692169371174  0.
-0.1329191435254712 2.6379726005381934  0.
0.14236674413174136 2.638311696324969  0.
0.35604815918237304 2.635318190621964  0.
0.5095761362439218 2.6248989941405783  0.
0.6041276145867124 2.6024483643842564  0.
0.6405848149574515 2.562948396984714  0.
-3.564440972280806 3.1773952970468287  0.
-2.853645598972162 3.1692608283903296  0.
-2.218208213936332 3.1657714467336517  0.
-1.65268251531124 3.163795804927748  0.
-1.152775351641017 3.162280074935298  0.
-0.7154321591787275 3.160982326141847  0.
-0.3388587051380054 3.159373864077909  0.
-0.022182349157194775 3.1560136059424324  0.
0.23507079574975556 3.148463880641118  0.
0.43332786685121233 3.1335192990850866  0.
0.5730321580497182 3.1074590859577187  0.
0.6545461786683552 3.0661933218473623  0.
-3.931565697558704 3.705214922323718  0.
-3.214707725543769 3.716451707489005  0.
-2.569543550838975 3.7267848144712072  0.
-1.9893828558826487 3.734032553552498  0.
-1.4690295436345164 3.737796148464038  0.
-1.00503349608721 3.7386137148429373  0.
-0.5958296147270247 3.7369004661440535  0.
-0.24134841427506754 3.7321576395505067  0.
0.05776868818405163 3.722752660497367  0.
0.3008803142787291 3.706170128268797  0.
0.48761376433650944 3.6793671199817277  0.
0.6177847439576533 3.638988420206056  0.
-4.309975607346461 4.287290113163859  0.
-3.5939335460650947 4.317570539918795  0.
-2.9458010448546617 4.341900193446572  0.
-2.358237483759644 4.358814394192006  0.
-1.8250410591447315 4.368513116175727  0.
-1.34182584086509 4.372344188290358  0.
-0.9065387476546067 4.371786670090328  0.
-0.5193442764800981 4.367426245168498  0.
-0.18175786206058295 4.358469501204181  0.
0.10447927198267336 4.342961824437725  0.
0.3380766904179691 4.318311658586088  0.
0.51823310515655 4.281672840247049  0.
-4.699098669761276 4.92558914338634  0.
-3.990689540846487 4.974297276223284  0.
-3.346354035114893 5.0128465269935  0.
-2.7587578622879008 5.039968352631929  0.
-2.2207594862014006 5.056205372258399  0.
-1.7266742665705797 5.0636356364754915  0.
-1.2732465362866354 5.064878284405426  0.
-0.8600912693344571 5.06188636164037  0.
-0.48916744647245397 5.054973277692664  0.
-0.16333730015066023 5.0427589023314345  0.
0.11498297664124041 5.0229111220748575  0.
0.3442437896884756 4.99279685650396  0.
-5.0988633667278895 5.621933117815722  0.
-4.403944524076654 5.688247325973534  0.
-3.769786968617217 5.741262266743616  0.
-3.189438998188652 5.779048393718866  0.
-2.654937865959518 5.802320220188889  0.
-2.159190080990693 5.813659746032614  0.
-1.697170259988014 5.816723620470602  0.
-1.2668926861771748 5.815049214495062  0.
-0.8698115112583716 5.810656539926373  0.
-0.5097652014762297 5.803106778378118  0.
-0.190695602901989 5.790115285046076  0.
0.08473593305111737 5.769059560089365  0.
-5.510783047746084 6.378775982144683  0.
-4.8330072409209945 6.462338427028714  0.
-4.214416118907487 6.529590385802492  0.
-3.648028982448705 6.577934590824439  0.
-3.125010022245147 6.6080200920307295  0.
-2.6370205632436656 6.623130179856605  0.
-2.177289191687195 6.627595192502607  0.
-1.741384635432386 6.626167893074072  0.
-1.328389052314506 6.6230215322637065  0.
-0.9418052731733758 6.619923269312807  0.
-0.5876777063360681 6.615183353046132  0.
-0.27081107825060974 6.604909284574918  0.
-5.9416843810792 7.203440947936145  0.
-5.279424252604722 7.3038986844498  0.
-4.680310527878503 7.384779940341247  0.
-4.133669435776913 7.440189683230368  0.
-3.6284436376195064 7.474112966251852  0.
-3.1560116977544026 7.491166294374079  0.
-2.7088742498406724 7.496115943298194  0.
-2.2806082089229176 7.4938635379799665  0.
-1.8666395133054823 7.489540148167715  0.
-1.4661344933809586 7.487789493535766  0.
-1.084964888273075 7.489690273144483  0.
-0.732213136509581 7.493123971763032  0.
-6.401423972946749 8.113524930925683  0.
-5.751759589588528 8.242197972620714  0.
-5.177674630753866 8.323439444646977  0.
-4.653372303389233 8.37324778989488  0.
-4.168038149068823 8.400656424221756  0.
-3.713976504634229 8.412531248816187  0.
-3.2846972394731777 8.414074684945135  0.
-2.8738677968558197 8.409709393296852  0.
-2.475051692663255 8.40381607379134  0.
-2.0821684593959833 8.401361070064802  0.
-1.691697581086559 8.407439390121885  0.
-1.3123580189779962 8.415726766106044  0.
-6.921641698938253 9.243551393438022  0.
-6.306816638692838 9.332583583464897  0.
-5.747261792993771 9.372909236088649  0.
-5.236182650697721 9.386655561936943  0.
-4.7630380690653835 9.385469205169468  0.
-4.321169734797571 9.375552202793925  0.
-3.905203275791708 9.361206927414905  0.
-3.5101697991678447 9.346052567245641  0.
-3.1308170575512957 9.333724126207578  0.
-2.7609642313976415 9.32879321367323  0.
-2.3925911997135603 9.339376421725586  0.
-2.013508749136967 9.389071163865053  0.
</DataArray>
<DataArray type="Float64" Name="Nodal S_xx" NumberOfComponents="1" format="ascii" >
-22.105772449891898 
-14.989035106610121 
-5.436173390151033 
-1.246691605413204 
1.6724049159023269 
3.580651502111176 
4.699139350861952 
5.136005196608296 
5.002010852515532 
4.455445187877649 
3.692124624004241 
3.2804899072265457 
-20.483319648000034 
-14.869066817142206 
-6.328149237038283 
-1.587185660568924 
1.4579934221081552 
3.4747984653672503 
4.678424799793677 
5.19479699270403 
5.126699287922971 
4.6103190149139355 
3.8425691565006184 
3.4244312200260705 
-18.003565102249524 
-14.355736998582643 
-7.544486903939534 
-2.385758136875669 
0.9573652178335748 
3.1873598332394044 
4.576228241464778 
5.26555006745811 
5.34986386474798 
4.929952762891105 
4.1721831081939795 
3.7360068980914187 
-16.516758021026842 
-13.613729055606054 
-7.973562625790619 
-3.1614978015090447 
0.35709259407099464 
2.780011312913619 
4.361830865605361 
5.242698769470195 
5.511206789731808 
5.243753050091047 
4.5479625122227345 
4.109829699934189 
-15.432874363820225 
-12.957257202004453 
-8.067691348129884 
-3.6810952217605393 
-0.222820647608729 
2.317345878926934 
4.0647052513707 
5.133621671044211 
5.599087278615674 
5.516348341563266 
4.946083605688374 
4.547926980513207 
-14.635423055656728 
-12.387278528551407 
-7.987981388791393 
-3.9960890359149923 
-0.693477592946528 
1.864915829161455 
3.726930490498758 
4.959235577542258 
5.616178429968895 
5.734342028563993 
5.341635464652688 
5.020896009505497 
-14.017148772956782 
-11.897867103254303 
-7.82236760928666 
-4.160030104788651 
-1.045365678401222 
1.4683059877320948 
3.389006378811743 
4.748077012946956 
5.576721355977943 
5.895658080533452 
5.712609260699234 
5.495770896306202 
-13.49832988620855 
-11.462507784195818 
-7.616350825989799 
-4.220597688590043 
-1.2924200599810436 
1.1426834018848857 
3.079402031562322 
4.527349391479435 
5.500202582812758 
6.006547948969755 
6.043546709693616 
5.94348045089073 
-13.011251873973466 
-11.046884351280195 
-7.387829266026194 
-4.212819216831077 
-1.457224962469445 
0.885576482128819 
2.8106427315807814 
4.316343048152141 
5.404893354847613 
6.077201403008036 
6.326398021293289 
6.3436731541231755 
-12.496654395925631 
-10.61272283423785 
-7.136580097544325 
-4.158124748363361 
-1.5621770061778504 
0.6846580992406284 
2.5824339324022896 
4.123702288587217 
5.303241257413138 
6.1174247325197175 
6.559095193131048 
6.685497087030267 
-11.902606475983033 
-10.120684309840799 
-6.849649592161747 
-4.065064480864514 
-1.6248652257774863 
0.5236494308420295 
2.3853090474632963 
3.947900817819975 
5.1996433951049 
6.133341978733754 
6.742765081041691 
6.965512061977384 
-11.18554803646216 
-9.532629628396279 
-6.504485529246564 
-3.930010926509778 
-1.6554012809772554 
0.38642296935304343 
2.2040086697481422 
3.778776571596116 
5.090047125322368 
6.125367118400783 
6.878564777313257 
7.184067278969964 
-10.31251111945626 
-8.813824391443141 
-6.070614775694949 
-3.7370803556184 
-1.654214132512907 
0.2600144022616244 
2.019887753251129 
3.598853488296223 
4.962139983624173 
6.087085259721695 
6.964726228700435 
7.341242188843495 
-9.264115859436142 
-7.93515724165516 
-5.510351238072014 
-3.456811404896417 
-1.6088009548497628 
0.13788286725841867 
1.812378181007545 
3.383022950596578 
4.794491251624217 
6.004065292445528 
6.993928649257796 
7.4331709910015284 
-8.037568761112915 
-6.875414677482931 
-4.77913649214851 
-3.043767502714965 
-1.4880507252801551 
0.02644725086638003 
1.5615230624055267 
3.0958415770223358 
4.551704120048511 
5.850339966303312 
6.950556290378563 
7.448730521706692 
-6.649195869380605 
-5.62134772880254 
-3.8260066342842483 
-2.436663963969633 
-1.2350416057358964 
-0.04079966031829549 
1.259649873817652 
2.6896661973990743 
4.17262338607888 
5.576393495473461 
6.804042964180907 
7.366843419169851 
-5.110167822660259 
-4.160027107271353 
-2.6006749740532595 
-1.5685354109596632 
-0.7725388105347548 
0.014655550588731456 
0.9493790730564147 
2.1284646887755407 
3.5527790471549903 
5.07816030118016 
6.489025961607659 
7.140336727175009 
-3.371841313002665 
-2.4096894248471625 
-1.0488616811970586 
-0.43354001050288604 
-0.052368620489988416 
0.3025779993005395 
0.7764411700226508 
1.5042122621055931 
2.608415883993663 
4.124495436445975 
5.821988406077282 
6.663276478806315 
-0.46808233518909614 
-0.005357597339863851 
0.5952594594888636 
0.772663289680733 
0.8244783656883755 
0.856676345864319 
0.9386114220972188 
1.1565939973720978 
1.6448615188097746 
2.6098183565820814 
4.280251927326516 
5.318054267313668 
1.5050464655036957 
1.4331155032594691 
1.374102121853829 
1.3513765947714624 
1.27513392773518 
1.1944112586887603 
1.1267252449483327 
1.1115759314224847 
1.239186700641255 
1.7258418532629851 
3.1946559278038276 
4.29201202865822 
</DataArray>
<DataArray type="Float64" Name="Nodal S_yy" NumberOfComponents="1" format="ascii" >
-7.399776603004839 
-5.631104617509157 
-2.9163263456038777 
-1.0487074329279478 
0.5427877327762708 
1.6721616251973113 
2.388222583290612 
2.7278331034254393 
2.762923366661886 
2.601113826617518 
2.376541155194583 
2.2659273720277815 
-4.435984242635124 
-4.034711016428893 
-2.900474821548726 
-1.407088118144149 
-0.016063758879226068 
1.0849188581259646 
1.8641219066394898 
2.3364147853037274 
2.5492973273907182 
2.5791264100999243 
2.533146534883847 
2.5067482964239316 
-1.2696933364938179 
-1.9398354419075976 
-2.4345393241313373 
-1.801765337310656 
-0.8344797484844583 
0.13756135656064272 
0.978795369415771 
1.6469114370919333 
2.142700473501798 
2.48881409898779 
2.7239526483419345 
2.8197932739493723 
-0.9511701646949741 
-1.2372630912429696 
-1.6906415872765737 
-1.6680382765681987 
-1.1256637958216784 
-0.3701271718485825 
0.42497738353489123 
1.170063085713077 
1.8257420554019725 
2.375794400395197 
2.8016809318655422 
2.980161917816287 
-0.7917968748681046 
-0.9289027957695284 
-1.2043329368595472 
-1.3055110789384519 
-1.0474489554413526 
-0.5016836162657656 
0.19238471918766772 
0.9364562032152957 
1.668446208361202 
2.3478839464503336 
2.935783466867775 
3.2013828119796184 
-0.7248696415814317 
-0.7641321701436887 
-0.8761816666298687 
-0.9331774741898199 
-0.7707301516579325 
-0.3639041493043458 
0.22991989228266804 
0.9357951948618206 
1.692022178608345 
2.450677962928017 
3.1688400615537407 
3.512352258428507 
-0.6845804638851428 
-0.6605044711395662 
-0.6352861830373985 
-0.5911379332785633 
-0.4186551790336964 
-0.06531228707202356 
0.46203296067479016 
1.1254232272210518 
1.879213621587117 
2.6812654321613993 
3.493691832639345 
3.897945705990576 
-0.6506711539358423 
-0.5786416438272542 
-0.43860009308593406 
-0.2808291043494522 
-0.04723924177605439 
0.31147119330875844 
0.8126548417184487 
1.4465771847302076 
2.188553882141554 
3.009084852524463 
3.8796053196196585 
4.323953298526058 
-0.6119928550104441 
-0.4986886593853145 
-0.2595769330889702 
0.006311723964213034 
0.31959644191516173 
0.7160171674865539 
1.2206655604382397 
1.8411616270213849 
2.57036832610109 
3.3924835433745795 
4.289046032497094 
4.7536351957919525 
-0.5626683293132746 
-0.4104535707987201 
-0.08301858458398767 
0.279333912865474 
0.6733115423704483 
1.1200854864390204 
1.6441472585808292 
2.2620933372058127 
2.9791465030723048 
3.7909388488526092 
4.687832166681748 
5.156173413801017 
-0.4998526479509456 
-0.3097608305801077 
0.09801606777657709 
0.5441729145831669 
1.0116835567543814 
1.5092792055254245 
2.0573881212880494 
2.6764996020237257 
3.3799225569264486 
4.171904600658355 
5.049753487945715 
5.50948394901027 
-0.4232713049760489 
-0.1969262045380845 
0.2838223853892304 
0.80223469797631 
1.3337919726635636 
1.8768780678893349 
2.4465096442234895 
3.0644349920893417 
3.7495796659913045 
4.512856479373051 
5.357104358339618 
5.799388682658457 
-0.33509737889027125 
-0.07603431162968127 
0.4691513916153325 
1.0500039755763884 
1.6372181422252656 
2.2195610610239296 
2.8053866535772176 
3.4161320498292183 
4.075431233808203 
4.800459811930411 
5.599147573314836 
6.017327436730906 
-0.23989388506922119 
0.04593954668432537 
0.6448919397396676 
1.2799913702713843 
1.917079638176975 
2.5346568395804043 
3.1324054998657136 
3.7292715913622887 
4.353319537786046 
5.028935762795157 
5.770355296623349 
6.158619717927159 
-0.14281806332063413 
0.1614750195311651 
0.8026396049790794 
1.485946934176046 
2.168681772314534 
2.8196494459105725 
3.4280708015799037 
4.006660991780393 
4.5857039776291995 
5.19922431994053 
5.8696934746599565 
6.220847776327298 
-0.0522301787576272 
0.26930714609272266 
0.9504757324317001 
1.6801496200643402 
2.4031372648964133 
3.079471367783106 
3.694144281917412 
4.252728050032283 
4.7803615831099675 
5.3157215056304725 
5.899841219050397 
6.208934604848306 
0.06398650071511108 
0.40204811405125906 
1.1531733946862204 
1.9579961778644743 
2.7021764657483693 
3.3653446566577703 
3.948535884032883 
4.463449871339852 
4.934224359417336 
5.3914048024342645 
5.8587226488961415 
6.097164761581773 
0.07829586854151693 
0.6683737044070338 
1.7590051214626747 
2.655830841433777 
3.357970597219089 
3.901548429959607 
4.328181361547429 
4.674701406243551 
4.983378358569002 
5.321428207143583 
5.758344244995411 
6.0082900577536265 
1.6505702164153224 
2.472149320043474 
3.7909023042716004 
4.588091318481571 
5.0531902964349555 
5.288172127761044 
5.357211944962261 
5.3003127038332245 
5.146612734953386 
4.94267606960411 
4.804696629213179 
4.772994956639241 
3.282599655261362 
4.0898018685101025 
5.34541157502287 
6.002695018589099 
6.275525183259397 
6.299342016507074 
6.135042472983435 
5.80968927505338 
5.325368167091019 
4.66421821821611 
3.9120164767199124 
3.5378346116630963 
</DataArray>
<DataArray type="Float64" Name="Nodal S_xy" NumberOfComponents="1" format="ascii" >
2.542984470248858 
1.3668285151513253 
0.14264593624271582 
0.33083522086927897 
0.8608794872212382 
1.454066284858079 
2.026681579731606 
2.5234268093623977 
2.8938589655088203 
3.0812977407960584 
3.028218268380224 
2.9346438023437877 
0.9230152523821977 
0.8536820807916679 
0.7023291271186096 
0.7761811543107324 
1.162437447041397 
1.6412219924900007 
2.1244762484163684 
2.557247547135825 
2.8920519827986437 
3.0779455799599145 
3.070466542607683 
3.013981238971322 
-1.1785455566433942 
-0.04076711029424346 
1.2454738562212366 
1.4867542627392447 
1.7232052135075087 
2.0351338558054692 
2.3742649486713914 
2.698889987704718 
2.9698812057618866 
3.1452486547841927 
3.1881363081058893 
3.17285820641367 
-1.8813825614393587 
-0.671785738115166 
1.0676390841783405 
1.8007639067669312 
2.145234651596927 
2.422517323603281 
2.693586637353076 
2.95384063273366 
3.1805669552829414 
3.339689828493319 
3.386483232608231 
3.3755866536356214 
-2.2053908601458305 
-1.0812606392544144 
0.7362414365984513 
1.7953701141591019 
2.3697644990327396 
2.730570612419948 
3.013034545553688 
3.258939506692219 
3.469685360491445 
3.6236988920452093 
3.6776086171252538 
3.672641085333198 
-2.3481824783615313 
-1.3343714399459585 
0.42898591149259935 
1.656097646161586 
2.4317471147184397 
2.931268567162137 
3.2861026978279333 
3.565360078406592 
3.7931802672907713 
3.9641831944296104 
4.046360620987059 
4.059494653844141 
-2.3892668185915396 
-1.4695360421879866 
0.20181143146438701 
1.4944117361700764 
2.4076850571757893 
3.0409787798500614 
3.495797423975205 
3.84223309643757 
4.117025768940851 
4.329253529313867 
4.46250515542193 
4.505700656197611 
-2.3628328962695386 
-1.5110737199707684 
0.0713343768575175 
1.3701480723521977 
2.3608697410762325 
3.0969944874966253 
3.649520697095317 
4.0772651509734175 
4.418456298364773 
4.69081205910183 
4.891868447327919 
4.972974125267374 
-2.2838412220509925 
-1.4748657129120522 
0.037308659958608714 
1.3125185091063294 
2.3343130519493727 
3.1358805174421254 
3.766759402443779 
4.2723176447108 
4.685961850814759 
5.027777977343764 
5.304282800577175 
5.426152438054462 
-2.159035948984438 
-1.3723595873383982 
0.09190134818095902 
1.3320769225213638 
2.3531987808989903 
3.185652335586117 
3.8684249004208766 
4.436629438844353 
4.916903777216025 
5.3273249896862565 
5.677935790755717 
5.839045047361317 
-1.9923465001885852 
-1.2131709669238073 
0.2235595493369389 
1.4281645217832308 
2.429129978777096 
3.264171303077579 
3.9713423661373453 
4.580937576525226 
5.113810154980017 
5.583815831026291 
6.0002340814141455 
6.19596923012546 
-1.787613822263682 
-1.006574413817383 
0.4190394277888019 
1.5939201515470303 
2.564681806155434 
3.3806135698349693 
4.086370249516724 
4.7137277266371465 
5.280594102385799 
5.796079845875368 
6.2658849846094915 
6.489993558494558 
-1.550006242673709 
-0.7622245659566493 
0.6648476789537086 
1.8201460345880962 
2.758083620019719 
3.538942543388739 
4.219358367844247 
4.839627841844611 
5.419387321931945 
5.963798728657867 
6.473111645252711 
6.718989860285625 
-1.2870890517811184 
-0.4905983711279889 
0.9483879508885122 
2.098341572657266 
3.0077983912938215 
3.7430227233822375 
4.3750827167293505 
4.960613354478823 
5.5287479834009385 
6.083764771596524 
6.618915212834039 
6.880487356538482 
-1.009992286980868 
-0.20312791652192266 
1.2591766351704168 
2.422426190984174 
3.315402860313302 
4.001923050819072 
4.56432427666626 
5.081679871726068 
5.605323753607863 
6.147345560177465 
6.694200867634612 
6.966370985434326 
-0.7323998419987957 
0.09102338917105665 
1.5928170852155485 
2.789088268238102 
3.6827811129927577 
4.328840168875066 
4.810297185439824 
5.222872732759944 
5.652515743781821 
6.142541677403804 
6.680706697125697 
6.957103334216555 
-0.45672416276176675 
0.4042192144313586 
1.971685495445661 
3.202510012172648 
4.097003786755023 
4.716534022844373 
5.131876779556832 
5.4278346561128155 
5.706960696403505 
6.066933075845886 
6.549809511591994 
6.821886413930104 
-0.08441977971847739 
0.8754731587050638 
2.516043558614126 
3.6775967054366134 
4.49850945659961 
5.071330144647181 
5.45177784210842 
5.686135695387096 
5.838083915358353 
6.007169302292654 
6.3001161734515785 
6.4892320996084845 
1.402058454757478 
2.176009593250811 
3.409362288705844 
4.1840412933933075 
4.734277881688431 
5.148692159112292 
5.460807870860689 
5.682643398811652 
5.826243473086867 
5.9345851500557165 
6.139996932503671 
6.291492159200926 
2.654756336559928 
3.1705495057092614 
3.9646242592831937 
4.435091771078052 
4.784094380911981 
5.076797348222166 
5.3305351933347005 
5.546249255780044 
5.720216085786964 
5.867190041618013 
6.130514703020155 
6.322969736418842 
</DataArray>
</PointData>
<CellData>
</CellData>
<Points>
<DataArray type="Float64" Name="Points" NumberOfComponents="3" format="ascii">
0.0 50.0 0.0
0.0 45.4545441 0.0
0.0 40.9090919 0.0
0.0 36.363636 0.0
0.0 31.818182 0.0
0.0 27.272728 0.0
0.0 22.727272 0.0
0.0 18.181818 0.0
0.0 13.636364 0.0
0.0 9.090909 0.0
0.0 4.5454545 0.0
0.0 0.0 0.0
2.52631569 50.5263176 0.0
2.52631569 46.1435394 0.0
2.52631569 41.7607651 0.0
2.52631569 37.3779907 0.0
2.52631569 32.9952164 0.0
2.52631569 28.6124401 0.0
2.52631569 24.2296658 0.0
2.52631569 19.8468895 0.0
2.52631569 15.4641151 0.0
2.52631569 11.0813398 0.0
2.52631569 6.69856453 0.0
2.52631569 2.31578946 0.0
5.05263138 51.0526314 0.0
5.05263138 46.8325348 0.0
5.05263138 42.612442 0.0
5.05263138 38.3923454 0.0
5.05263138 34.1722488 0.0
5.05263138 29.9521523 0.0
5.05263138 25.7320576 0.0
5.05263138 21.511961 0.0
5.05263138 17.2918663 0.0
5.05263138 13.0717707 0.0
5.05263138 8.85167503 0.0
5.05263138 4.63157892 0.0
7.57894754 51.578949 0.0
7.57894754 47.5215302 0.0
7.57894754 43.4641151 0.0
7.57894754 39.4067001 0.0
7.57894754 35.3492813 0.0
7.57894754 31.2918663 0.0
7.57894754 27.2344494 0.0
7.57894754 23.1770344 0.0
7.57894754 19.1196175 0.0
7.57894754 15.0622005 0.0
7.57894754 11.0047846 0.0
7.57894754 6.94736862 0.0
10.1052628 52.1052628 0.0
10.1052628 48.2105255 0.0
10.1052628 44.3157883 0.0
10.1052628 40.421051 0.0
10.1052628 36.5263176 0.0
10.1052628 32.6315804 0.0
10.1052628 28.7368412 0.0
10.1052628 24.8421059 0.0
10.1052628 20.9473686 0.0
10.1052628 17.0526314 0.0
10.1052628 13.1578951 0.0
10.1052628 9.26315784 0.0
12.6315794 52.6315804 0.0
12.6315794 48.8995209 0.0
12.6315794 45.1674652 0.0
12.6315794 41.4354057 0.0
12.6315794 37.7033501 0.0
12.6315794 33.9712906 0.0
12.6315794 30.2392349 0.0
12.6315794 26.5071774 0.0
12.6315794 22.7751198 0.0
12.6315794 19.0430622 0.0
12.6315794 15.3110046 0.0
12.6315794 11.5789471 0.0
15.1578951 53.1578941 0.0
15.1578951 49.5885162 0.0
15.1578951 46.0191383 0.0
15.1578951 42.4497604 0.0
15.1578951 38.8803825 0.0
15.1578951 35.3110046 0.0
15.1578951 31.7416267 0.0
15.1578951 28.1722488 0.0
15.1578951 24.6028709 0.0
15.1578951 21.033493 0.0
15.1578951 17.4641151 0.0
15.1578951 13.8947372 0.0
17.6842098 53.6842117 0.0
17.6842098 50.2775116 0.0
17.6842098 46.8708153 0.0
17.6842098 43.4641151 0.0
17.6842098 40.057415 0.0
17.6842098 36.6507187 0.0
17.6842098 33.2440186 0.0
17.6842098 29.8373203 0.0
17.6842098 26.4306221 0.0
17.6842098 23.0239239 0.0
17.6842098 19.6172256 0.0
17.6842098 16.2105255 0.0
20.2105255 54.2105255 0.0
20.2105255 50.966507 0.0
20.2105255 47.7224884 0.0
20.2105255 44.4784698 0.0
20.2105255 41.2344513 0.0
20.2105255 37.9904289 0.0
20.2105255 34.7464104 0.0
20.2105255 31.5023918 0.0
20.2105255 28.2583733 0.0
20.2105255 25.0143547 0.0
20.2105255 21.7703342 0.0
20.2105255 18.5263157 0.0
22.7368412 54.7368431 0.0
22.7368412 51.6555023 0.0
22.7368412 48.5741615 0.0
22.7368412 45.4928246 0.0
22.7368412 42.4114838 0.0
22.7368412 39.330143 0.0
22.7368412 36.2488022 0.0
22.7368412 33.1674652 0.0
22.7368412 30.0861244 0.0
22.7368412 27.0047855 0.0
22.7368412 23.9234447 0.0
22.7368412 20.8421059 0.0
25.2631588 55.2631569 0.0
25.2631588 52.3444977 0.0
25.2631588 49.4258385 0.0
25.2631588 46.5071754 0.0
25.2631588 43.5885162 0.0
25.2631588 40.669857 0.0
25.2631588 37.7511978 0.0
25.2631588 34.8325348 0.0
25.2631588 31.9138756 0.0
25.2631588 28.9952145 0.0
25.2631588 26.0765553 0.0
25.2631588 23.1578941 0.0
27.7894745 55.7894745 0.0
27.7894745 53.033493 0.0
27.7894745 50.2775116 0.0
27.7894745 47.5215302 0.0
27.7894745 44.7655487 0.0
27.7894745 42.0095711 0.0
27.7894745 39.2535896 0.0
27.7894745 36.4976082 0.0
27.7894745 33.7416267 0.0
27.7894745 30.9856453 0.0
27.7894745 28.2296658 0.0
27.7894745 25.4736843 0.0
30.3157902 56.3157883 0.0
30.3157902 53.7224884 0.0
30.3157902 51.1291847 0.0
30.3157902 48.5358849 0.0
30.3157902 45.942585 0.0
30.3157902 43.3492813 0.0
30.3157902 40.7559814 0.0
30.3157902 38.1626778 0.0
30.3157902 35.5693779 0.0
30.3157902 32.976078 0.0
30.3157902 30.3827744 0.0
30.3157902 27.7894745 0.0
32.8421059 56.8421059 0.0
32.8421059 54.4114838 0.0
32.8421059 51.9808617 0.0
32.8421059 49.5502396 0.0
32.8421059 47.1196175 0.0
32.8421059 44.6889954 0.0
32.8421059 42.2583733 0.0
32.8421059 39.8277512 0.0
32.8421059 37.3971291 0.0
32.8421059 34.966507 0.0
32.8421059 32.5358849 0.0
32.8421059 30.1052628 0.0
35.3684196 57.3684196 0.0
35.3684196 55.1004791 0.0
35.3684196 52.8325348 0.0
35.3684196 50.5645943 0.0
35.3684196 48.2966499 0.0
35.3684196 46.0287094 0.0
35.3684196 43.7607651 0.0
35.3684196 41.4928246 0.0
35.3684196 39.2248802 0.0
35.3684196 36.9569397 0.0
35.3684196 34.6889954 0.0
35.3684196 32.421051 0.0
37.8947372 57.8947372 0.0
37.8947372 55.7894745 0.0
37.8947372 53.6842117 0.0
37.8947372 51.578949 0.0
37.8947372 49.4736824 0.0
37.8947372 47.3684196 0.0
37.8947372 45.2631569 0.0
37.8947372 43.1578941 0.0
37.8947372 41.0526314 0.0
37.8947372 38.9473686 0.0
37.8947372 36.8421059 0.0
37.8947372 34.7368431 0.0
40.421051 58.421051 0.0
40.421051 56.4784698 0.0
40.421051 54.5358849 0.0
40.421051 52.5932999 0.0
40.421051 50.6507187 0.0
40.421051 48.7081337 0.0
40.421051 46.7655487 0.0
40.421051 44.8229675 0.0
40.421051 42.8803825 0.0
40.421051 40.9377975 0.0
40.421051 38.9952164 0.0
40.421051 37.0526314 0.0
42.9473686 58.9473686 0.0
42.9473686 57.1674652 0.0
42.9473686 55.387558 0.0
42.9473686 53.6076546 0.0