<?xml version="1.0"?>
<VTKFile type="UnstructuredGrid" version="0.1" byte_order="LittleEndian" compressor="vtkZLibDataCompressor">
<UnstructuredGrid>
<Piece NumberOfPoints="240" NumberOfCells="209">
<PointData>
<DataArray type="Float64" Name="displacement" NumberOfComponents="3" format="ascii" >
0.0 0.0  0.
0.0 0.0  0.
0.0 0.0  0.
0.0 0.0  0.
0.0 0.0  0.
0.0 0.0  0.
0.0 0.0  0.
0.0 0.0  0.
0.0 0.0  0.
0.0 0.0  0.
0.0 0.0  0.
0.0 0.0  0.
-0.17346341150549618 0.14451254581411271  0.
-0.060337398811469406 0.027048958249168854  0.
-0.0294258333353604 0.004259385624346581  0.
-0.006477276733680033 0.007936548181494977  0.
0.009256994944107706 0.021444470661590262  0.
0.02018668713913033 0.039489319198314776  0.
0.02668936860316798 0.05844907709451014  0.
0.029145631324803797 0.07562948621696539  0.
0.027994094390819832 0.08866315392600722  0.
0.023993962094502132 0.09554983507103551  0.
0.018590076648298558 0.09514485109087686  0.
0.013073497369214909 0.0868977059699312  0.
-0.34575712540739606 0.21838637831254268  0.
-0.16389451714644607 0.1126985814047835  0.
-0.07377328484384965 0.058582824085256925  0.
-0.020804538504208266 0.05133336111905299  0.
0.016149567356284773 0.06598745393764925  0.
0.041353421587509376 0.09114796783992732  0.
0.05686256977753091 0.12010553065347121  0.
0.06357164998976922 0.14792491253204973  0.
0.06231582829039166 0.1705737938006487  0.
0.05435349328586672 0.18472419864902814  0.
0.041935852848691835 0.18813350645129778  0.
0.028736749096103437 0.18099195621329148  0.
-0.506484863541337 0.30356919782827824  0.
-0.28316752230242387 0.207812670917468  0.
-0.14118201180512552 0.1482048276159956  0.
-0.04894697892166896 0.1280840636561868  0.
0.014385115394068282 0.13647511229146805  0.
0.058215062844874876 0.16076903681939667  0.
0.08618150972359319 0.19233774854651486  0.
0.10015256122026854 0.22473861338931087  0.
0.1014047336284719 0.2527616869457388  0.
0.09149507898959289 0.2721014429785812  0.
0.0730671368707296 0.27960634051687583  0.
0.05083383737697425 0.27428651329297643  0.
-0.6627205950766033 0.4027827760220466  0.
-0.41013334204919816 0.3169912985473155  0.
-0.2258175794589423 0.2586051492714055  0.
-0.09450113064921832 0.23221971391628282  0.
-0.0005815185528660412 0.23278386564853287  0.
0.06586922133666451 0.2517179937004586  0.
0.11015038652039233 0.2806350963595067  0.
0.13503431121297066 0.31259294539042926  0.
0.14231961193402234 0.3417714973480006  0.
0.1337558008725786 0.3632358492313609  0.
0.11195375231170995 0.37301018281944903  0.
0.08151108280086435 0.36865174901886555  0.
-0.8181190529097656 0.5186559229824846  0.
-0.5425089142758267 0.441595852763007  0.
-0.3238821146839721 0.38734258802987404  0.
-0.15682632584635825 0.3586219417628374  0.
-0.031468496265693396 0.3531735526214205  0.
0.060484892505042506 0.3654181898720964  0.
0.12454303342108648 0.3887399048076152  0.
0.16408495596187075 0.41671472566627343  0.
0.1813100185707093 0.4435424854671813  0.
0.17808432256305987 0.46405758030494093  0.
0.15674970988422196 0.4737556142167533  0.
0.1211433782468602 0.46903170083088325  0.
-0.9752518728630654 0.6527087561560467  0.
-0.6799708215699498 0.5834651574456811  0.
-0.43321222041582513 0.5342620496491147  0.
-0.2347246461467443 0.5056535811182661  0.
-0.07915856716623068 0.49620792868320746  0.
0.039433585388360594 0.5023121067053942  0.
0.1258057038823525 0.5190611085026213  0.
0.18331145699964888 0.5411185644998829  0.
0.21429678756073553 0.5632159991456475  0.
0.22063066101389944 0.580365374276211  0.
0.2043037083101416 0.5879185177894652  0.
0.1681970297710397 0.5816309208504276  0.
-1.1359085023918543 0.8064897193732704  0.
-0.823004692335974 0.744478581959447  0.
-0.5527950116645348 0.7005154857387931  0.
-0.32718605125250344 0.6733808742031073  0.
-0.14379487818122963 0.6616481526531225  0.
0.0011403944468187644 0.6627960593242179  0.
0.11117756485957303 0.6732629721632403  0.
0.18915947669607797 0.6888373539998682  0.
0.2372518390744145 0.7050406442504334  0.
0.25718398290788547 0.717367958927845  0.
0.250587323930668 0.7213851201908819  0.
0.21947336375447862 0.7127306006525497  0.
-1.3013744728586385 0.9816799390712401  0.
-0.972385212775432 0.9266483218025428  0.
-0.6823697687136608 0.8878785568035699  0.
-0.4336127545486541 0.862949890132041  0.
-0.22531771666907108 0.8501973604771277  0.
-0.05535930482896288 0.8476754160186387  0.
0.07859478573655693 0.852770726388731  0.
0.1786170209132544 0.8622392255970232  0.
0.24643378392715615 0.8724190869088113  0.
0.2834879747511437 0.8794371584844671  0.
0.2910655525857172 0.8793178948274841  0.
0.27051196895775986 0.8679801815558378  0.
-1.4725515377216998 1.180136835496596  0.
-1.128937046752638 1.132112601362684  0.
-0.8221374643049503 1.0984827726937607  0.
-0.5538270134180509 1.0761529908019478  0.
-0.3237482035465359 1.0632652765178305  0.
-0.13076298199402367 1.0582125621479215  0.
0.026456352263574612 1.0590522102255215  0.
0.14915542799722875 1.0633114146337783  0.
0.23846761570432184 1.0680584714495176  0.
0.295431584164972 1.0700638142291177  0.
0.32099577454857653 1.0659168339007326  0.
0.3160456109358819 1.052042294425661  0.
-1.6500021542892875 1.4038770818523438  0.
-1.2934060997691077 1.363112944365627  0.
-0.9725451068729182 1.3346595713059437  0.
-0.6879939017303324 1.3151718650699926  0.
-0.4393125234224434 1.3027499915391907  0.
-0.22574080413243738 1.296071128312997  0.
-0.0466157624418299 1.2937226058039286  0.
0.0985704358480459 1.2938561216487516  0.
0.21029840112273335 1.2941531585211927  0.
0.28911919316446877 1.2919580344781523  0.
0.33563423423471095 1.2844146472709  0.
0.3504166897607483 1.2685182997182325  0.
-1.8339605349305623 1.6550323600285946  0.
-1.4663716332647472 1.6219434744834647  0.
-1.1341120994538114 1.5988322331278972  0.
-0.8365015542430821 1.582403266411714  0.
-0.5724562358394544 1.5708676199009497  0.
-0.3410780564559647 1.5632249373757814  0.
-0.1419800628946683 1.5585666868990629  0.
0.024787333984206218 1.5556068651263284  0.
0.15906063291133846 1.5525509009177862  0.
0.2608380027223053 1.5472172457545383  0.
0.3303379132879063 1.5372178093120412  0.
0.3678896021090623 1.5200636917709178  0.
-2.0243283408218975 1.9357839615120886  0.
-1.6481699990115506 1.9108790812579939  0.
-1.3072747296959897 1.893421170643216  0.
-0.9998007375583122 1.8803302848077934  0.
-0.7237686877512864 1.8700207542633083  0.
-0.47771560712499256 1.8618715379279611  0.
-0.2611179710019049 1.855526881463113  0.
-0.07432755590079126 1.8502952202196525  0.
0.08190104137691427 1.8448849712835487  0.
0.20694506240450405 1.837502899974084  0.
0.3005614546236598 1.8261074175025847  0.
0.36282216510540305 1.8085965028498103  0.
-2.2207043242464253 2.2482872401258316  0.
-1.838822924674456 2.2320907312965335  0.
-1.492223179013545 2.2207500262899256  0.
-1.1782035669936357 2.2114095698979104  0.
-0.8938074559911501 2.2026864626381575  0.
-0.6366687015180722 2.194353504191889  0.
-0.4056751401326915 2.1866781899709253  0.
-0.20111854061352846 2.1796811307337083  0.
-0.02421882423635871 2.1726573730825507  0.
0.12368966186722695 2.164177270984737  0.
0.24175236331853922 2.152419851524143  0.
0.3296843280329561 2.1355065959767954  0.
-2.422491771496349 2.5946235184608843  0.
-2.037994272789677 2.5876000922701237  0.
-1.6887423673202606 2.582978004572542  0.
-1.3716431329625673 2.5779738538118115  0.
-1.0828200130763332 2.571301607432743  0.
-0.818772282734906 2.56307365005898  0.
-0.5773308366945565 2.5541956128437984  0.
-0.3581850329077108 2.5455595565475932  0.
-0.16271095372112573 2.5372692110662594  0.
0.006978534974589305 2.5283577599433626  0.
0.14914733594174068 2.517150474671365  0.
0.26292522564526816 2.501787931876575  0.
-2.629227652767964 2.976936155474359  0.
-2.245040055441458 2.9794065880725045  0.
-1.8961294719846478 2.9821906547414248  0.
-1.5794724800217048 2.9821830717359727  0.
-1.2904015802333502 2.9781212962847077  0.
-1.0242249690567375 2.970336819014249  0.
-0.7773550302522905 2.960270474928976  0.
-0.548164853746323 2.9497337797354874  0.
-0.33744387489808997 2.9399841560606292  0.
-0.14790454035990175 2.9308731987331655  0.
0.017451128157611673 2.920877912355622  0.
0.15669924210921968 2.9080355918733427  0.
-2.8411831648482933 3.3980027832839133  0.
-2.4592998600204736 3.41029677189659  0.
-2.1133876196156156 3.420885328074351  0.
-1.800537783658811 3.426233332120061  0.
-1.5153562179076334 3.425017061704  0.
-1.2520720263368141 3.417926638969493  0.
-1.0057202771261458 3.4067365168127086  0.
-0.7728544362590727 3.393863112103422  0.
-0.5524102548677592 3.381789650671121  0.
-0.346499451882238 3.371946697639428  0.
-0.1595956113399104 3.3635666936743784  0.
0.004353392418155218 3.354032732021626  0.
-3.061003067482134 3.864128531977515  0.
-2.6809533913982797 3.8860342919598945  0.
-2.3401586754753056 3.904234675031376  0.
-2.034364566800109 3.913207331846782  0.
-1.7565303052058827 3.9132891097166627  0.
-1.5003579050913027 3.906073807281749  0.
-1.2601943313855446 3.893641041716115  0.
-1.0311725769087912 3.878402052233093  0.
-0.8097163718757627 3.863163565789317  0.
-0.594741500793047 3.8508778454824357  0.
-0.38980602147857024 3.8430274764490973  0.
-0.201981396625604 3.838459950873418  0.
-3.2923830186397556 4.389355486262914  0.
-2.912267009255643 4.425542590497003  0.
-2.5811387445711387 4.444111563978045  0.
-2.285017250540148 4.448878475791224  0.
-2.0162269624805167 4.443647604986378  0.
-1.7687892514620815 4.431710505100084  0.
-1.5375679708998147 4.4156764712320165  0.
-1.3177118370498921 4.397751083258485  0.
-1.1044644975982365 4.380113130744305  0.
-0.8933747803744349 4.36536854468618  0.
-0.6815572326518103 4.356706157046906  0.
-0.47405368564810607 4.352747472382591  0.
-3.540364036525892 5.051531240358717  0.
-3.1778181801609264 5.068742117297629  0.
-2.8574653154290512 5.0616357169680075  0.
-2.5697523733907657 5.0420077662282194  0.
-2.30748102377134 5.016071591128716  0.
-2.0658270313652127 4.987539919800146  0.
-1.8407876221168402 4.9589881988656765  0.
-1.62863538367578 4.932430445252974  0.
-1.4255048928758887 4.9096944247722725  0.
-1.2269556956315204 4.892923474586619  0.
-1.0272392595012345 4.885953888433392  0.
-0.8169956531025954 4.900869482711325  0.
</DataArray>
<DataArray type="Float64" Name="Nodal S_xx" NumberOfComponents="1" format="ascii" >
-10.396082836710764 
-7.282291022534885 
-2.9336917135984857 
-0.7761837781737636 
0.7810351410184454 
1.8276805824886222 
2.451506002593631 
2.6987460784828086 
2.6264534302387985 
2.3249696482535196 
1.917049403529456 
1.7027786738203228 
-9.65744935587043 
-7.225020884578292 
-3.353150293315861 
-0.9594076185333186 
0.6651204700793258 
1.7729122369829398 
2.446084961638158 
2.738125519846489 
2.7013798721762146 
2.414364679524576 
1.9979682999159099 
1.7754093986322788 
-8.55745389691378 
-6.997562213779812 
-3.923014403584083 
-1.371170079829305 
0.3984336396187963 
1.6228271891267658 
2.401122690533708 
2.790721233144888 
2.8375140140592596 
2.5998643802916663 
2.1785250398868325 
1.9383470462068426 
-7.940854515605416 
-6.683774100704574 
-4.123654669161571 
-1.7564288243663826 
0.0867462704293844 
1.410062476251659 
2.2944606555158313 
2.79160958573787 
2.9409555746699025 
2.7850006036269948 
2.390076372160748 
2.1433744105320383 
-7.513833061932319 
-6.420692692497008 
-4.174514757587308 
-2.013582365862574 
-0.20917693154012773 
1.1708282256793203 
2.144140172670551 
2.7459161406105785 
3.005356285428494 
2.9505375207284423 
2.61930064828554 
2.3903641152644637 
-7.22495210662575 
-6.2079207768897975 
-4.15292476138341 
-2.1728069909671817 
-0.4482409384624575 
0.9390083987400162 
1.9733905328025323 
2.6656819728384162 
3.0323687579270127 
3.088951761730968 
2.852504998476884 
2.6634163411905303 
-7.026683205823051 
-6.0427717679206046 
-4.10020283872989 
-2.262422916734871 
-0.6279610733863366 
0.7368180430698861 
1.8034176288767525 
2.5663951434601273 
3.029721834486923 
3.1988108625680223 
3.0773402698619523 
2.94428970751063 
-6.884900101393527 
-5.913593252663422 
-4.0374516451574785 
-2.3066592368578767 
-0.7567671857904364 
0.5709984704168762 
1.6486182213962812 
2.462400137116724 
3.007745158386122 
3.283001839539649 
3.2845676650775513 
3.216228411326651 
-6.770655199570066 
-5.8051342645619215 
-3.972736969704779 
-2.323170083474806 
-0.8470510470403514 
0.4393765236225724 
1.5150096755942286 
2.363699608483154 
2.976043872869635 
3.346467972486058 
3.4685986194699225 
3.4665935896971316 
-6.657313862370247 
-5.699563218035562 
-3.9055674897957497 
-2.322950017524489 
-0.9112026492585799 
0.3345182765640776 
1.4017190994202227 
2.274568498739071 
2.941155205403085 
3.3940815824739166 
3.627034989808216 
3.687654204350112 
-6.518707125526927 
-5.576840410754315 
-3.8291233781760803 
-2.3107684383126386 
-0.9595808298105163 
0.24631513640358826 
1.3024227198332599 
2.19346654095759 
2.9052356369124817 
3.4289829732986217 
3.7595615073380912 
3.8760125834818524 
-6.328472861833923 
-5.414745053226399 
-3.7310497945879346 
-2.285180915474244 
-0.9991335579931255 
0.1637962858443553 
1.2065135599281105 
2.1131647256554986 
2.865331422659959 
3.4513232281044157 
3.8665274298302608 
4.031188716033363 
-6.060622218675879 
-5.18910919499709 
-3.593181828452531 
-2.237584164376692 
-1.0316662612208145 
0.07684433767580524 
1.0999212746177705 
2.020535835236977 
2.8125010627701057 
3.4570164012868867 
3.947304956047542 
4.153729759196493 
-5.69171366407556 
-4.874697302588203 
-3.390579980492154 
-2.150052495052738 
-1.0507589245644093 
-0.021051402660986637 
0.9660978435920775 
1.8955499044713684 
2.7298964834084574 
3.4357381742512474 
3.998160328831701 
4.242944080634408 
-5.204538576219932 
-4.447089300302464 
-3.090563877687924 
-1.9923744610284169 
-1.0367447024156853 
-0.12704854864747347 
0.7891011950670764 
1.709836018158689 
2.5883844821916857 
3.3666153884613106 
4.008860182741973 
4.293657790291029 
-4.592421841093763 
-3.884326600828172 
-2.6526221749928878 
-1.721054002087314 
-0.9512615319401968 
-0.2185352565366499 
0.5640597624805147 
1.428553373961076 
2.339085410655858 
3.207884778371467 
3.955015757746518 
4.291088021045036 
-3.8483537854916468 
-3.1638887465450107 
-2.0330051315288755 
-1.2862134638592908 
-0.7412417783855494 
-0.24293757802102156 
0.3223539131066516 
1.0325545139756422 
1.9087183777858403 
2.875120957510365 
3.7792507753997957 
4.194527161142711 
-2.927422461601715 
-2.223558519589184 
-1.1867307981775606 
-0.6741529493059171 
-0.3735406328297669 
-0.13192559447647687 
0.15714166583339695 
0.5900604573993518 
1.2585567789913212 
2.2106452366617875 
3.3294851545302464 
3.9002646137144366 
-1.28517562516884 
-0.8374439085137825 
-0.22799775175828513 
-0.004917635123124223 
0.08037904172368064 
0.12187063056737243 
0.1767119418279406 
0.30544342810925557 
0.5962563421409994 
1.1877328834013932 
2.255522675508275 
2.9311980768341526 
-0.15712668641498134 
0.011043395928306027 
0.24508962611121735 
0.3167951049617226 
0.30989261676516155 
0.2779007191906318 
0.24373582163525956 
0.2364546512248805 
0.3129679189737794 
0.6052845597490083 
1.5028967598532335 
2.177081938153223 
</DataArray>
<DataArray type="Float64" Name="Nodal S_yy" NumberOfComponents="1" format="ascii" >
-3.676478020777614 
-2.83481745261323 
-1.5040753303572632 
-0.5388595202713065 
0.29154604264051975 
0.8939646014006889 
1.2855292812655823 
1.4801244540795504 
1.5106241919151295 
1.4299897355393218 
1.3087653424891 
1.2474973988584734 
-2.1743747082651703 
-1.9924000086523543 
-1.4430917279839304 
-0.6901339879343193 
0.020945451763857873 
0.5937212343157757 
1.0070692075646273 
1.2639483468506054 
1.3846247821613937 
1.4048611389107821 
1.3771333948896363 
1.3589940615450193 
-0.5747469244837664 
-0.8964740026057474 
-1.1370705092426765 
-0.8356836371594458 
-0.364481733581212 
0.11838357309576393 
0.5444433547109913 
0.8897048800947159 
1.15107700113403 
1.3355944493747909 
1.4560026432580564 
1.502144062474457 
-0.42207853450163424 
-0.5442455758830662 
-0.7446632787758781 
-0.7366536612269348 
-0.4840538921189774 
-0.12246901966295556 
0.2673602792834161 
0.6413935221360966 
0.9780693532288407 
1.2653356302048961 
1.4869306186822073 
1.5784858349615107 
-0.34872885524526787 
-0.3992671875954793 
-0.5080220376162157 
-0.5494865556826266 
-0.43067539680855166 
-0.17431874884821258 
0.1600888318140427 
0.5278618168337563 
0.8986812872545986 
1.2501830903588305 
1.557518302987001 
1.696508289883946 
-0.32252427230518815 
-0.32935265426196686 
-0.3607133961425844 
-0.37369296413441405 
-0.29206078214478987 
-0.09754686448078911 
0.18964021813810758 
0.5382472764254521 
0.9204137827356125 
1.312328602570717 
1.6897648465708395 
1.871598273771184 
-0.3106093384028921 
-0.29126623597408363 
-0.2609165537390866 
-0.22126194298400928 
-0.1256853178531558 
0.05236892201560019 
0.3144278684714867 
0.6470255611639839 
1.0313634871739907 
1.44836200412557 
1.8789049200285177 
2.095122853066491 
-0.3036103833138825 
-0.26544828765693246 
-0.18491602431356696 
-0.08839371254269568 
0.04471673448619662 
0.2358927343252374 
0.4954671333882402 
0.8223309334686545 
1.2079338954957999 
1.6404213732078543 
2.107242733392088 
2.347672479979397 
-0.2967522075227143 
-0.24258510183179163 
-0.11888456964925098 
0.03158591463811177 
0.21040814374500172 
0.4302399375401585 
0.7028574445897453 
1.0340253448444143 
1.4230709266491153 
1.8649693278096369 
2.353108949545999 
2.607898736237447 
-0.2876319224360657 
-0.21792621767664294 
-0.05484954206393466 
0.14475958694041152 
0.3696018780896051 
0.6237313861279425 
0.9170634769382872 
1.2585051126839737 
1.6525807212967214 
2.0993817392412595 
2.596611316676369 
2.857480564804142 
-0.2748469268491286 
-0.1890828572683945 
0.011553526651883327 
0.2556923881610812 
0.5235160471387929 
0.8117234503965971 
1.12723687225012 
1.4801845428117189 
1.8785018514021092 
2.3258603338688513 
2.8226577925450766 
3.0833295371871277 
-0.2576279184788413 
-0.1551740409609536 
0.08205052000044019 
0.36706836403876975 
0.674230460121295 
0.9937536934704986 
1.3291247318230333 
1.6909360178948787 
2.0899477203403203 
2.5328042380007108 
3.0216895798616603 
3.2776815609268475 
-0.23582149340313396 
-0.11665957290925763 
0.15598599453382278 
0.4793210517201511 
0.8232041837796372 
1.1713478374292696 
1.522992456699235 
1.8887051844034373 
2.28240211745178 
2.7143773191611444 
3.188812487523669 
3.436789346963663 
-0.21010616179361913 
-0.07530784631745989 
0.23062872506529106 
0.5906368405136835 
0.9703308737220467 
1.3461369174254072 
1.7115134439657669 
2.0757301681442497 
2.4563447379039234 
2.869090274929232 
3.321992307304691 
3.5589413047395917 
-0.1814200049224905 
-0.03329912990576484 
0.30334938473489215 
0.6995704911464333 
1.115094620689105 
1.519025013134003 
1.8976002231288636 
2.25632034169878 
2.6152476761561423 
2.9980865308616953 
3.4197854431694865 
3.641328196964194 
-0.15198862307167124 
0.011067725511285473 
0.38152869454457106 
0.8162091188033341 
1.2664360019221594 
1.6947446864841684 
2.0835466489764234 
2.4335909028801352 
2.763051344830236 
3.101430570085264 
3.478305353626852 
3.679661457200438 
-0.10163568214471924 
0.08211369665442142 
0.5116427680784559 
1.0043685386286918 
1.478874268693113 
1.907359473360703 
2.2815529872949836 
2.604916353554291 
2.8942939533468777 
3.17783266407349 
3.4825513920627564 
3.6430136042644605 
-0.06883020133186071 
0.2687590381726677 
0.9192025772611078 
1.488645595624747 
1.9463656865126846 
2.3030351287713007 
2.578691657958359 
2.793338907060889 
2.9719996893501155 
3.15962070274381 
3.4152447168959075 
3.567379709877658 
0.8901920787458878 
1.4218266405197342 
2.2901548046126217 
2.830199266060146 
3.1411486396771586 
3.2874727967755892 
3.3142626552491343 
3.2518116593857007 
3.12165147208307 
2.9532362090370308 
2.823554252228125 
2.7826425828897063 
1.8523287217618023 
2.4358507810048895 
3.341157191188599 
3.8128611486205957 
4.001328128892141 
3.9991693176464613 
3.857501073610266 
3.6051934485712755 
3.253271682532631 
2.7964450530923495 
2.284727973385974 
2.029261323109882 
</DataArray>
<DataArray type="Float64" Name="Nodal S_xy" NumberOfComponents="1" format="ascii" >
1.065298473676432 
0.5604043459279953 
0.004254276304411608 
0.06087788943989112 
0.3252291190360673 
0.6526320292809256 
0.9848228499986257 
1.2788496907385116 
1.4979074568200414 
1.6082604394795883 
1.584412105921363 
1.536501300103626 
0.3259544559992458 
0.31005692893302006 
0.2482412303342369 
0.27765705362458315 
0.47924963497939616 
0.7498465637567618 
1.0345221529697768 
1.2936756987106448 
1.4936467329245684 
1.603639940642929 
1.602854403020148 
1.5732303931196205 
-0.6555654843205787 
-0.13961187485242493 
0.4626551347123312 
0.6080079406970241 
0.7552028192620102 
0.947942103668894 
1.1594035458498324 
1.3619728986616904 
1.5292339537671902 
1.6351605184608968 
1.6594634856193664 
1.649409220828721 
-1.009056144146256 
-0.46883762078091756 
0.3380049978049062 
0.7273177030498116 
0.9442908258173235 
1.1310602180541474 
1.3144546111393964 
1.4881505333005915 
1.6361079578727895 
1.7367594379736109 
1.7638050388671478 
1.7553701756623834 
-1.1753897475413693 
-0.683735465147781 
0.14705915698255045 
0.6898118982899737 
1.0266581961671206 
1.2655648006390448 
1.463894591876406 
1.6378229914820768 
1.7841442128006215 
1.8879902100047394 
1.922999765024826 
1.9192132276255713 
-1.2576663195164204 
-0.8226162800125821 
-0.027195251429624173 
0.5900519798688664 
1.0270745150826457 
1.3420293850911311 
1.5859038032927728 
1.7860166712385899 
1.9499845340890165 
2.0711635759604805 
2.1288765266481757 
2.1383312715565808 
-1.296389907278361 
-0.9074346700386522 
-0.16084712817385194 
0.4827072252410459 
0.9865650521836024 
1.372425113005952 
1.6743627613205136 
1.9180842454244096 
2.1163403105288907 
2.2694844223600548 
2.3649530166432458 
2.3958254457408206 
-1.3082693618973091 
-0.9508349197528491 
-0.2473062641775384 
0.3966432501694302 
0.9377259695958432 
1.3776078456339047 
1.7350918862738451 
2.0291022332918023 
2.2720659257791165 
2.468223568772504 
2.612351737941426 
2.6701051926984922 
-1.2993917577493368 
-0.9595197292675173 
-0.28612839282952623 
0.3466781876601952 
0.9028761714687994 
1.3773168449937931 
1.7793724003879747 
2.1210704588002613 
2.411698866057501 
2.6561717570396928 
2.853988993176969 
2.9407892803212485 
-1.2708217424420352 
-0.9365182468527062 
-0.27860753314172726 
0.34003787457642864 
0.8963194590526669 
1.3871784917929737 
1.8189977274823983 
2.199422285715241 
2.534036660170105 
2.8261566239237874 
3.076953195758321 
3.192023217890043 
-1.221323510007497 
-0.8827542814643811 
-0.22620654609467208 
0.3801455901635252 
0.9270385473914793 
1.4186919131454077 
1.8641607108245228 
2.2704162795444502 
2.6403727059951185 
2.9745609354797478 
3.2731626412493 
3.4136117349864996 
-1.149010895551287 
-0.7983282392411268 
-0.13022746887402767 
0.4688035757778263 
1.0011575057314674 
1.4805477159211742 
1.9232398075981452 
2.3398778846378328 
2.7330118295431407 
3.1002244425346586 
3.4386847858935217 
3.6004712649724784 
-1.0527331105211273 
-0.6837959575740222 
0.007805105637746057 
0.6073040770337201 
1.1239828844596111 
1.5806226239201462 
2.0039340975345548 
2.413159138030772 
2.814321771622625 
3.2030857585897565 
3.572180790850675 
3.7509649096885527 
-0.9335422003473716 
-0.5415221370099161 
0.18533596226409615 
0.7966180482622482 
1.301320421393417 
1.7281865777730638 
2.115558439391986 
2.496452035726395 
2.886523096891633 
3.2827726384457696 
3.6727966388292783 
3.864512590798329 
-0.7960369593875061 
-0.3765721575310781 
0.39827273377016714 
1.0367112785966652 
1.5391467389592006 
1.9350936987044083 
2.27202123115754 
2.5999499356755384 
2.9530258849244557 
3.337471124228572 
3.7374793273650004 
3.9385471136170094 
-0.6476208433096116 
-0.19461538622481728 
0.6432114838350454 
1.3257050590920418 
1.8397619899195476 
2.2119490556707215 
2.492226648237084 
2.7427974080506745 
3.0228786047588967 
3.3645387636730493 
3.7579733210210753 
3.9637334517103473 
-0.4886437458358107 
0.011497212414338709 
0.9314559948243044 
1.6630424068715748 
2.1913759381273548 
2.5499171020702702 
2.7842386686927427 
2.9513898975396944 
3.1220646837213133 
3.366391614541453 
3.71731987752287 
3.9197901130666963 
-0.26196616517739657 
0.32456252506815614 
1.3356380118820832 
2.054414456910972 
2.548628047498486 
2.8783358759354236 
3.0846265490614835 
3.2028524064990145 
3.279786822498597 
3.387544826062694 
3.60617032402239 
3.752313163796161 
0.5868648662079566 
1.1292315854921704 
1.979933809178776 
2.480547093303392 
2.8016026788713226 
3.019573326445551 
3.168896496879896 
3.2653176869509184 
3.321991046139066 
3.3717957151669236 
3.5096902509996504 
3.618162615627466 
1.2920781935860546 
1.732320421736778 
2.3780636753251603 
2.6962912824897067 
2.883070434675483 
3.0134436232092554 
3.1161486081528125 
3.200522440616562 
3.2682099988778797 
3.3304369152442987 
3.4859564588222014 
3.6089471786999265 
</DataArray>
</PointData>
<CellData>
</CellData>
<Points>
<DataArray type="Float64" Name="Points" NumberOfComponents="3" format="ascii">
0.0 50.0 0.0
0.0 45.4545441 0.0
0.0 40.9090919 0.0
0.0 36.363636 0.0
0.0 31.818182 0.0
0.0 27.272728 0.0
0.0 22.727272 0.0
0.0 18.181818 0.0
0.0 13.636364 0.0
0.0 9.090909 0.0
0.0 4.5454545 0.0
0.0 0.0 0.0
2.52631569 50.5263176 0.0
2.52631569 46.1435394 0.0
2.52631569 41.7607651 0.0
2.52631569 37.3779907 0.0
2.52631569 32.9952164 0.0
2.52631569 28.6124401 0.0
2.52631569 24.2296658 0.0
2.52631569 19.8468895 0.0
2.52631569 15.4641151 0.0
2.52631569 11.0813398 0.0
2.52631569 6.69856453 0.0
2.52631569 2.31578946 0.0
5.05263138 51.0526314 0.0
5.05263138 46.8325348 0.0
5.05263138 42.612442 0.0
5.05263138 38.3923454 0.0
5.05263138 34.1722488 0.0
5.05263138 29.9521523 0.0
5.05263138 25.7320576 0.0
5.05263138 21.511961 0.0
5.05263138 17.2918663 0.0
5.05263138 13.0717707 0.0
5.05263138 8.85167503 0.0
5.05263138 4.63157892 0.0
7.57894754 51.578949 0.0
7.57894754 47.5215302 0.0
7.57894754 43.4641151 0.0
7.57894754 39.4067001 0.0
7.57894754 35.3492813 0.0
7.57894754 31.2918663 0.0
7.57894754 27.2344494 0.0
7.57894754 23.1770344 0.0
7.57894754 19.1196175 0.0
7.57894754 15.0622005 0.0
7.57894754 11.0047846 0.0
7.57894754 6.94736862 0.0
10.1052628 52.1052628 0.0
10.1052628 48.2105255 0.0
10.1052628 44.3157883 0.0
10.1052628 40.421051 0.0
10.1052628 36.5263176 0.0
10.1052628 32.6315804 0.0
10.1052628 28.7368412 0.0
10.1052628 24.8421059 0.0
10.1052628 20.9473686 0.0
10.1052628 17.0526314 0.0
10.1052628 13.1578951 0.0
10.1052628 9.26315784 0.0
12.6315794 52.6315804 0.0
12.6315794 48.8995209 0.0
12.6315794 45.1674652 0.0
12.6315794 41.4354057 0.0
12.6315794 37.7033501 0.0
12.6315794 33.9712906 0.0
12.6315794 30.2392349 0.0
12.6315794 26.5071774 0.0
12.6315794 22.7751198 0.0
12.6315794 19.0430622 0.0
12.6315794 15.3110046 0.0
12.6315794 11.5789471 0.0
15.1578951 53.1578941 0.0
15.1578951 49.5885162 0.0
15.1578951 46.0191383 0.0
15.1578951 42.4497604 0.0
15.1578951 38.8803825 0.0
15.1578951 35.3110046 0.0
15.1578951 31.7416267 0.0
15.1578951 28.1722488 0.0
15.1578951 24.6028709 0.0
15.1578951 21.033493 0.0
15.1578951 17.4641151 0.0
15.1578951 13.8947372 0.0
17.6842098 53.6842117 0.0
17.6842098 50.2775116 0.0
17.6842098 46.8708153 0.0
17.6842098 43.4641151 0.0
17.6842098 40.057415 0.0
17.6842098 36.6507187 0.0
17.6842098 33.2440186 0.0
17.6842098 29.8373203 0.0
17.6842098 26.4306221 0.0
17.6842098 23.0239239 0.0
17.6842098 19.6172256 0.0
17.6842098 16.2105255 0.0
20.2105255 54.2105255 0.0
20.2105255 50.966507 0.0
20.2105255 47.7224884 0.0
20.2105255 44.4784698 0.0
20.2105255 41.2344513 0.0
20.2105255 37.9904289 0.0
20.2105255 34.7464104 0.0
20.2105255 31.5023918 0.0
20.2105255 28.2583733 0.0
20.2105255 25.0143547 0.0
20.2105255 21.7703342 0.0
20.2105255 18.5263157 0.0
22.7368412 54.7368431 0.0
22.7368412 51.6555023 0.0
22.7368412 48.5741615 0.0
22.7368412 45.4928246 0.0
22.7368412 42.4114838 0.0
22.7368412 39.330143 0.0
22.7368412 36.2488022 0.0
22.7368412 33.1674652 0.0
22.7368412 30.0861244 0.0
22.7368412 27.0047855 0.0
22.7368412 23.9234447 0.0
22.7368412 20.8421059 0.0
25.2631588 55.2631569 0.0
25.2631588 52.3444977 0.0
25.2631588 49.4258385 0.0
25.2631588 46.5071754 0.0
25.2631588 43.5885162 0.0
25.2631588 40.669857 0.0
25.2631588 37.7511978 0.0
25.2631588 34.8325348 0.0
25.2631588 31.9138756 0.0
25.2631588 28.9952145 0.0
25.2631588 26.0765553 0.0
25.2631588 23.1578941 0.0
27.7894745 55.7894745 0.0
27.7894745 53.033493 0.0
27.7894745 50.2775116 0.0
27.7894745 47.5215302 0.0
27.7894745 44.7655487 0.0
27.7894745 42.0095711 0.0
27.7894745 39.2535896 0.0
27.7894745 36.4976082 0.0
27.7894745 33.7416267 0.0
27.7894745 30.9856453 0.0
27.7894745 28.2296658 0.0
27.7894745 25.4736843 0.0
30.3157902 56.3157883 0.0
30.3157902 53.7224884 0.0
30.3157902 51.1291847 0.0
30.3157902 48.5358849 0.0
30.3157902 45.942585 0.0
30.3157902 43.3492813 0.0
30.3157902 40.7559814 0.0
30.3157902 38.1626778 0.0
30.3157902 35.5693779 0.0
30.3157902 32.976078 0.0
30.3157902 30.3827744 0.0
30.3157902 27.7894745 0.0
32.8421059 56.8421059 0.0
32.8421059 54.4114838 0.0
32.8421059 51.9808617 0.0
32.8421059 49.5502396 0.0
32.8421059 47.1196175 0.0
32.8421059 44.6889954 0.0
32.8421059 42.2583733 0.0
32.8421059 39.8277512 0.0
32.8421059 37.3971291 0.0
32.8421059 34.966507 0.0
32.8421059 32.5358849 0.0
32.8421059 30.1052628 0.0
35.3684196 57.3684196 0.0
35.3684196 55.1004791 0.0
35.3684196 52.8325348 0.0
35.3684196 50.5645943 0.0
35.3684196 48.2966499 0.0
35.3684196 46.0287094 0.0
35.3684196 43.7607651 0.0
35.3684196 41.4928246 0.0
35.3684196 39.2248802 0.0
35.3684196 36.9569397 0.0
35.3684196 34.6889954 0.0
35.3684196 32.421051 0.0
37.8947372 57.8947372 0.0
37.8947372 55.7894745 0.0
37.8947372 53.6842117 0.0
37.8947372 51.578949 0.0
37.8947372 49.4736824 0.0
37.8947372 47.3684196 0.0
37.8947372 45.2631569 0.0
37.8947372 43.1578941 0.0
37.8947372 41.0526314 0.0
37.8947372 38.9473686 0.0
37.8947372 36.8421059 0.0
37.8947372 34.7368431 0.0