<?xml version="1.0"?>
<VTKFile type="UnstructuredGrid" version="0.1" byte_order="LittleEndian" compressor="vtkZLibDataCompressor">
<UnstructuredGrid>
<Piece NumberOfPoints="240" NumberOfCells="209">
<PointData>
<DataArray type="Float64" Name="displacement" NumberOfComponents="3" format="ascii" >
0.0 0.0  0.
0.0 0.0  0.
0.0 0.0  0.
0.0 0.0  0.
0.0 0.0  0.
0.0 0.0  0.
0.0 0.0  0.
0.0 0.0  0.
0.0 0.0  0.
0.0 0.0  0.
0.0 0.0  0.
0.0 0.0  0.
-0.01727886479696834 0.01518405428407862  0.
-0.006135264689742961 0.0032475894443211536  0.
-0.0030495639321256648 0.0005876641140264464  0.
-0.0007663961158732666 0.0006025478705988302  0.
0.0008148206882892285 0.001681190241687593  0.
0.0019289957212255732 0.003301481281865459  0.
0.0026097357213016527 0.005099322336851399  0.
0.0028880324640924854 0.006791792086303972  0.
0.002800574524532433 0.008121288305590599  0.
0.0024177766722720943 0.008863643191101335  0.
0.0018832450163878182 0.008883355354142983  0.
0.0013431063341515078 0.00813116364420618  0.
-0.03433454330626983 0.022806504238496037  0.
-0.01655767521301798 0.011980549502617748  0.
-0.007680688941636757 0.006046343441126314  0.
-0.002410591276140127 0.004746130434934285  0.
0.001308974654366674 0.005728998900822472  0.
0.00389015401833327 0.007898121009873431  0.
0.005521002559155517 0.010587656741892812  0.
0.006274579764091637 0.013288368832242905  0.
0.0062190499427617445 0.01556697448823527  0.
0.005469147705547687 0.017053855111179926  0.
0.004247830499994658 0.01749033803705541  0.
0.0029411010484444843 0.0168777494180974  0.
-0.05001821798836582 0.03141502338239778  0.
-0.028441202897290196 0.021434996138875888  0.
-0.014567560097923211 0.014849667980530142  0.
-0.005454385990554203 0.012136387522585841  0.
0.0008952026545148842 0.012347179351052477  0.
0.005369492105209623 0.014298599327576041  0.
0.008297278312036992 0.01714961989255405  0.
0.00983459208439755 0.020244941759366714  0.
0.01008320856085691 0.023031943762846292  0.
0.009180072839463158 0.02503713833950184  0.
0.0073825562709171405 0.025900946041876944  0.
0.005175088828737677 0.02548851583677582  0.
-0.06513719470186201 0.04133595478191714  0.
-0.040945015776728766 0.03217954192846964  0.
-0.023069876830041157 0.02559613666606662  0.
-0.010180745030450028 0.022152017902800504  0.
-0.0008267145841421527 0.021473492388742892  0.
0.005911362424376812 0.022786545044562845  0.
0.010505893835183442 0.02528716353819327  0.
0.013186816208008446 0.02827805979568399  0.
0.014094795041164671 0.03114819435090368  0.
0.013375752546625397 0.03335921927485945  0.
0.011275664637293532 0.03446244901906223  0.
0.008258762399718221 0.03416513624372075  0.
-0.0800676252230951 0.05286586144261507  0.
-0.05384145931490836 0.044397769193283435  0.
-0.032775453607029804 0.03808248670239241  0.
-0.016478062224937123 0.03429357434753015  0.
-0.0040752559455507304 0.03291633764394273  0.
0.005176446970120563 0.033472334511594544  0.
0.011755577857370287 0.035338921508190166  0.
0.01593703419987063 0.03787693210817622  0.
0.01788754186881534 0.04048156193579305  0.
0.017752469948766947 0.04259209643729327  0.
0.015740177519018243 0.04370333238213139  0.
0.012228221533734564 0.04339771145767107  0.
-0.09505392819025622 0.06617821111087388  0.
-0.06709563151857251 0.058295652713789864  0.
-0.04344887475054375 0.05231919431638853  0.
-0.024191795883985394 0.04841372311519358  0.
-0.008894953791888672 0.04653301833891165  0.
0.002947320209000172 0.046386911275654634  0.
0.011730624089849033 0.04752373568660439  0.
0.01771671717307528 0.04941692557849191  0.
0.021074712820470753 0.051519106052927165  0.
0.021937882570110777 0.053289662328258276  0.
0.020467330072818094 0.05420797530033868  0.
0.01693272693494183 0.05378716688388451  0.
-0.11024954278510458 0.08143818387634623  0.
-0.08074425080357182 0.07406913749804514  0.
-0.05497038790773714 0.06843443957186947  0.
-0.03319110264178051 0.06453197350640916  0.
-0.015260955200177744 0.062306395080947756  0.
-0.0008893719908730469 0.0615681452746615  0.
0.010198940199838592 0.061997983863672786  0.
0.018209782011593366 0.06318464104666657  0.
0.023285701046816033 0.06466407520011458  0.
0.02553521512923972 0.06594756190419779  0.
0.02507146221896786 0.06653719353869421  0.
0.022063947309168174 0.0659322427391786  0.
-0.1257510345468057 0.09881545465977098  0.
-0.09484190274454692 0.09191815268478039  0.
-0.06728987095408931 0.08660868163005848  0.
-0.04338453478468456 0.08276975302064521  0.
-0.023127849973582797 0.08031372691949669  0.
-0.006385088991681307 0.07910025820220416  0.
0.007001397684122418 0.07890259143365147  0.
0.01716101305440153 0.07940911194095995  0.
0.02418814040530792 0.0802426151133715  0.
0.028154622640077745 0.08098254365717782  0.
0.02912846019984449 0.08118037452237976  0.
0.027199725487355064 0.08036453819353108  0.
-0.14161266437256406 0.11848969751758018  0.
-0.10943809989155623 0.11204818407568706  0.
-0.0803943742240935 0.10705013828166743  0.
-0.05471624372053985 0.10330683956163182  0.
-0.03245348318710166 0.10070042843540507  0.
-0.013560389489022105 0.09911496274900598  0.
0.002029862055793023 0.09838792821161103  0.
0.014369915816999222 0.09828840519302522  0.
0.023495040058966226 0.09851888054346132  0.
0.029431774377822215 0.09872998890606774  0.
0.03220604565779752 0.09853537806602934  0.
0.031850821647014964 0.09751817036798714  0.
-0.15785279020073426 0.1406494505017205  0.
-0.12456609648274822 0.13466924618795845  0.
-0.09428542623959801 0.1299808608083745  0.
-0.06715523595717494 0.12635621481903922  0.
-0.043207658830754836 0.12365726080290318  0.
-0.022425295976536388 0.1217838680108872  0.
-0.004794180350559071 0.12062205911477192  0.
0.009675997114367478 0.12000738999170314  0.
0.02096015045590716 0.11971236751535595  0.
0.029034381780062492 0.11945421235697509  0.
0.033883988037314294 0.1189098724068814  0.
0.03550207172296792 0.11772604145218586  0.
-0.17445724511737226 0.16548839930895828  0.
-0.14023646290876834 0.15999204750719018  0.
-0.10896231659079807 0.1556273817600911  0.
-0.08068207069295581 0.15214749972538463  0.
-0.055370847247932634 0.1494031403226485  0.
-0.032990085414202855 0.14730854861487847  0.
-0.013536742903136507 0.14579190892545527  0.
0.0029414029183014623 0.14474834732109249  0.
0.016365677785311967 0.14401369981539178  0.
0.026658717735366898 0.1433648993015028  0.
0.03376356141912743 0.14253601113118045  0.
0.03764249338454272 0.14123364225881674  0.
-0.19138202773205013 0.1932006047261425  0.
-0.15643284782672862 0.18822292467305074  0.
-0.12440906636279471 0.1842131247211151  0.
-0.09527365166540008 0.18091515728794946  0.
-0.06892549654140838 0.17817211577215403  0.
-0.04526643591736447 0.17591159287372143  0.
-0.02426191188031839 0.17410200726665523  0.
-0.005964940820260752 0.1726978816030048  0.
0.009506104309100306 0.17159807125498092  0.
0.022018553669612285 0.1706349613367709  0.
0.031466738601859556 0.16959092532262002  0.
0.03778169655269705 0.16822134185727802  0.
-0.2085599695886443 0.22397721227745773  0.
-0.1731095411442146 0.21955941761760564  0.
-0.14058293971127872 0.21595222493268432  0.
-0.11088704195239069 0.2128890448670173  0.
-0.08384039371717052 0.21020226492803282  0.
-0.059258102856293515 0.2078280517960521  0.
-0.037032111127908475 0.20577203597080246  0.
-0.01717821980817752 0.20405143392471625  0.
0.00017101536618054596 0.20263569296058379  0.
0.014828172179514614 0.20141591801619727  0.
0.026625625659298643 0.20021632178038018  0.
0.035451765056587294 0.19882684351569374  0.
-0.2259146066856094 0.2580101488992348  0.
-0.19019249023720966 0.2541929254852971  0.
-0.1574054460749853 0.25104883281871854  0.
-0.12744348655390772 0.2482887889707511  0.
-0.10005059935689659 0.24572502374057995  0.
-0.07493934793191466 0.24329457745912927  0.
-0.05189263807435301 0.24103155703264756  0.
-0.03083614441955385 0.23901490271949316  0.
-0.011868740562869556 0.23729848963373823  0.
0.004780459582202365 0.2358479592906539  0.
0.018861901342829387 0.23453161095696917  0.
0.030194476161031412 0.23316143275350523  0.
-0.24339146631583117 0.295520906304674  0.
-0.2075866933616102 0.2923330088895846  0.
-0.17475967894546118 0.2897176494484551  0.
-0.14481974882455448 0.2873297419290643  0.
-0.11744013074848215 0.2849569831151126  0.
-0.09222686406294876 0.28253073675027185  0.
-0.06883427762748637 0.280102445389495  0.
-0.047050447443106505 0.2777978442476936  0.
-0.026860239220587744 0.2757588112232717  0.
-0.008476323452011998 0.2740594953941778  0.
0.007754714779444871 0.27263478339058644  0.
0.021531530106582836 0.2713110226080441  0.
-0.2610054741427766 0.3368397741096635  0.
-0.22519117167007519 0.33430410304013025  0.
-0.19250360389633045 0.3322541199786984  0.
-0.16286143518881027 0.3302706722012853  0.
-0.13585284405129297 0.32810601139194684  0.
-0.11097024995644057 0.3257085477552604  0.
-0.08774914025897004 0.3231464156933513  0.
-0.06582927882069609 0.32056749947181057  0.
-0.04501460806097741 0.3181682974890871  0.
-0.025348218278852086 0.3161443528257425  0.
-0.007205025970740046 0.31456884789699907  0.
0.008916008717318864 0.3133114928460634  0.
-0.2789505734802879 0.3827321818033986  0.
-0.2429294537868081 0.38078668245390446  0.
-0.21050534053746053 0.37929688802559136  0.
-0.18147797951616437 0.3775612768164681  0.
-0.15518935829351055 0.37542681383015436  0.
-0.13102653811008802 0.3729251741793901  0.
-0.10845096483912421 0.3701642806580628  0.
-0.08700398131362586 0.3672971783339162  0.
-0.06632364556558587 0.36452211123347183  0.
-0.046194284166499816 0.3620841561228056  0.
-0.026650366279199644 0.36024971537320905  0.
-0.008366532117824368 0.35901194460990504  0.
-0.2974175749243332 0.43482042275916555  0.
-0.26060421007049145 0.4338716678040846  0.
-0.22895450502022166 0.4323544978326545  0.
-0.20096258459597627 0.43011702947978664  0.
-0.17570884720825372 0.4273362269526637  0.
-0.15252822675008246 0.42420653869433067  0.
-0.13089421338828183 0.4208912299369309  0.
-0.11034883809980217 0.4175332567964141  0.
-0.09047154761572765 0.4142828241982352  0.
-0.07087382857026678 0.41133851625598733  0.
-0.05121959303108696 0.40900990642837154  0.
-0.03118904826268121 0.40793308118762245  0.
-0.3152581810968753 0.5015301513139522  0.
-0.27974677323713737 0.4986178489768968  0.
-0.24958587639193572 0.4942586193546179  0.
-0.22288295356664342 0.48937507923733375  0.
-0.19869480991474192 0.4843678539667962  0.
-0.1764420166353981 0.47944344698895336  0.
-0.15569020111520257 0.4747225905642605  0.
-0.136068513883731 0.4702830098369978  0.
-0.11722358155652797 0.4661783918837874  0.
-0.09878693199282573 0.46245099467785095  0.
-0.08034686786867429 0.4591483014067506  0.
-0.06145108269825422 0.4562771275190664  0.
</DataArray>
<DataArray type="Float64" Name="Nodal_sigma_xx" NumberOfComponents="1" format="ascii" >
-9.516853171987107 
-6.8216389776381945 
-2.9554571068839968 
-0.8770081989402911 
0.6772699198478905 
1.7582900202358531 
2.4254281510181954 
2.707538919142932 
2.6525237268807427 
2.3501892272294214 
1.9332589573428716 
1.7144521443648608 
-8.818271928402826 
-6.748288562410925 
-3.3402477726438367 
-1.0660517063209718 
0.5532210193965286 
1.6981585260767194 
2.4188420420679893 
2.749251450528112 
2.731867733495701 
2.4444195076546764 
2.016801941519778 
1.7877195682142717 
-7.791176571517301 
-6.511402127955 
-3.857394152981173 
-1.477272483601927 
0.2727126887552699 
1.535879481595883 
2.368459673641084 
2.8038522817546165 
2.875766315226418 
2.640335005496335 
2.2049947487892965 
1.9551176607646745 
-7.232651040625341 
-6.21239112178718 
-4.029589747963215 
-1.849533298738812 
-0.04704949312417048 
1.309489578687971 
2.2514951081250496 
2.801888628837781 
2.9845015648077684 
2.8366675376781973 
2.4283421771543545 
2.1705055280183183 
-6.849903354156542 
-5.9659397147266 
-4.064945070488524 
-2.094966732050359 
-0.3467925775375309 
1.057154430435514 
2.088036175412055 
2.7493367492700775 
3.0512288488471584 
3.013030559510623 
2.672571943082835 
2.4330646995969345 
-6.593982068454974 
-5.769499510134547 
-4.036852788193913 
-2.246197022168989 
-0.5888975458404125 
0.8127616913549427 
1.9023048055967249 
2.658810294581325 
3.07727650624738 
3.161023727051323 
2.9232362896496795 
2.726354105095834 
-6.419693419303768 
-5.619208093485863 
-3.9840137960533033 
-2.332195271390553 
-0.7726214491300628 
0.5976833338798822 
1.715683456559097 
2.5460007546315273 
3.070007799729413 
3.2782470743393217 
3.1668873409805167 
3.031137688918923 
-6.295975020911023 
-5.503776332437056 
-3.9257682400151115 
-2.37696785122246 
-0.9072162903995025 
0.4180224731636939 
1.5423992449178008 
2.425203769286893 
3.0393083305018376 
3.36645878211863 
3.3926339411797763 
3.328857269639176 
-6.19789773040498 
-5.409472964588572 
-3.8690707137612987 
-2.397477733007559 
-1.0051680860683527 
0.27133391167444487 
1.388324483156926 
2.306288150069237 
2.994319514231738 
3.4294060337687338 
3.592748376096222 
3.6042546210729163 
-6.103839983364097 
-5.321098488705328 
-3.812970733681338 
-2.4037418643639383 
-1.0783148075774756 
0.15038861909867 
1.2526193831917498 
2.1934092223324764 
2.9411297964576884 
3.4708001729062596 
3.762466179907756 
3.846504330696386 
-5.993718322462238 
-5.222364990927537 
-3.750924225931718 
-2.399436512803424 
-1.1358282442468284 
0.045893686764584246 
1.1292994100856242 
2.0849414532388235 
2.8814101024554493 
3.4926653994885983 
3.899150467995681 
4.049098626732087 
-5.848303021935087 
-5.095936516771186 
-3.6717576829664456 
-2.38214237870021 
-1.1828445785388424 
-0.05146764197570919 
1.0086255370056367 
1.9736355738220146 
2.811544421514068 
3.4939462974212603 
4.000996925812571 
4.208755556126549 
-5.649452325533535 
-4.923554670430083 
-3.5596795869997084 
-2.342816143023768 
-1.2188485091599712 
-0.1489615759199118 
0.8784333506931989 
1.84661579798118 
2.721577324756534 
3.468941658244547 
4.065245791929637 
4.3235542832019185 
-5.381391122300538 
-4.686485341618494 
-3.3936690000051177 
-2.2644089583207507 
-1.2351244072816676 
-0.24867782178474895 
0.7261924459580846 
1.6851996876201976 
2.5932541838455436 
3.4047453073927745 
4.085531375769818 
4.390232327694825 
-5.032725401043436 
-4.366322785988852 
-3.146596053962607 
-2.120103817234847 
-1.21142717498448 
-0.3422241101034673 
0.5438593786427712 
1.4658122986979878 
2.3965938412425154 
3.2761358399572353 
4.047210669631747 
4.399961069440343 
-4.598453549101052 
-3.9445500193464715 
-2.783910263864298 
-1.8731799281192718 
-1.1140919929198994 
-0.4045265047043155 
0.3388363448656664 
1.1675621472355084 
2.0864690097705445 
3.0353961352327166 
3.917590535939012 
4.329930057884667 
-4.067563379309236 
-3.3959984067354148 
-2.2632537802517536 
-1.4816878982594068 
-0.9039084286156842 
-0.39493033108731534 
0.1467062587367068 
0.7992747333888477 
1.6151452128112909 
2.5946827759653743 
3.6224506951795523 
4.124034789866817 
-3.3887709802478656 
-2.6454018515755666 
-1.5246692492233906 
-0.9327934024776353 
-0.569551721254388 
-0.282703993697487 
0.023692036009016003 
0.4287031604727992 
1.0102556786731818 
1.8469285249112644 
2.9841585036685543 
3.6295346402313324 
-1.9932889333232877 
-1.4287804932736823 
-0.6543777611267545 
-0.3503686778286125 
-0.20389913627083736 
-0.10750293747314121 
-0.004246250134027178 
0.15505236051151255 
0.43117168737097455 
0.9108304811628577 
1.7418660264599946 
2.2692787330775444 
-0.9844146154101507 
-0.6528719842878989 
-0.21709643288434868 
-0.0796259164751274 
-0.034552279589405155 
-0.015948052670674423 
0.00452612912963099 
0.0545602087963384 
0.1757505695963003 
0.43796689836247077 
0.9359953364312352 
1.2566697225064578 
</DataArray>
<DataArray type="Float64" Name="Nodal_sigma_yy" NumberOfComponents="1" format="ascii" >
-3.642007496128902 
-2.8514020296362648 
-1.585643037273912 
-0.6462556217285338 
0.1697996024726653 
0.775192085422763 
1.183065354736483 
1.4009544700137513 
1.4534662642450393 
1.3858622987684321 
1.265147291064405 
1.2009610486801638 
-2.132978956962999 
-1.9759765774470737 
-1.4691914088019167 
-0.749441764504139 
-0.063124080699171 
0.49869944812892264 
0.9143895512586742 
1.1830547812669756 
1.3189099091503054 
1.350996050365194 
1.3264326350617914 
1.3071903793566078 
-0.5287462772260451 
-0.8405028555082859 
-1.0824371257489682 
-0.8112519249782167 
-0.3771561542710091 
0.0739548178710762 
0.4790614268829324 
0.8153659895431695 
1.0778905260639036 
1.2692729231154212 
1.3953758870357051 
1.443044942612754 
-0.3774333326547478 
-0.4790835280981496 
-0.6555610050191052 
-0.6578390539713321 
-0.43889952517564595 
-0.1167700189559516 
0.23837093897001838 
0.5881701844171541 
0.9129669587498991 
1.1991650658522013 
1.4251186473058097 
1.5192733985193603 
-0.30250668807708136 
-0.3305994384880928 
-0.40657326243164854 
-0.4435184006441991 
-0.347331356053697 
-0.12835903411634383 
0.16644045383523248 
0.5011372590091592 
0.8505021880598179 
1.1935822516017822 
1.502852240172465 
1.644788564362647 
-0.27483830789467745 
-0.25921921558686206 
-0.255282438285546 
-0.25613608342288663 
-0.18744077839699846 
-0.02378422868834569 
0.22507208371671752 
0.5375647496971743 
0.8929703173690678 
1.2714468622538806 
1.6490305278587774 
1.8341169481234383 
-0.26095743811582356 
-0.2197608331017025 
-0.154543825830864 
-0.09991145853507807 
-0.010808062867947742 
0.14322247860154402 
0.37139036825795335 
0.6690386469413434 
1.0252609724254114 
1.4267195633988006 
1.8571563699570854 
2.077337411157638 
-0.25158193526650463 
-0.19237158722314268 
-0.07871611788153923 
0.03290160032402518 
0.16329230772511388 
0.336201987245024 
0.5673199233088582 
0.862878217049216 
1.2220124320224472 
1.6395379746814778 
2.107694634347651 
2.3533280396253566 
-0.24227866751860042 
-0.16816199106211172 
-0.013834495565123388 
0.15050292105289237 
0.3286461742115956 
0.534834627773988 
0.7844509734228285 
1.089118172016971 
1.4552102502340536 
1.8846509166156284 
2.3768031738916395 
2.638384192076651 
-0.23115544505964447 
-0.14312176644699143 
0.047356895047243115 
0.25902477896585796 
0.4844211329165855 
0.728833286402391 
1.0043912990626271 
1.3245018787753093 
1.6999774308855349 
2.1377722867524054 
2.6421056477368063 
2.9113284373400043 
-0.2173965331356585 
-0.11570002127783499 
0.1081681295087997 
0.3622959459122324 
0.6317162190277611 
0.9139649543105539 
1.2168395255282922 
1.5536139484477343 
1.9377360633364789 
2.3795332247687413 
2.8860566643491534 
3.1562205660424585 
-0.20081011582693856 
-0.08576448410734062 
0.1693508838552814 
0.462062270826011 
0.7719549712894468 
1.0895110408628437 
1.4175887230372055 
1.7683310594356105 
2.1571184647537684 
2.5970884980628566 
3.0971249299532637 
3.3630090597910325 
-0.1816727920492623 
-0.05417727829849035 
0.22986327003357038 
0.5583265557891924 
0.9061193249968115 
1.2565957252471982 
1.6067419616706495 
1.966618519912624 
2.353473179939599 
2.7839454843510456 
3.2692373169493454 
3.526579301127549 
-0.16074205857496723 
-0.02241115890019698 
0.287868681486083 
0.6504154961161743 
1.035050626845002 
1.417329992256628 
1.7872141067921796 
2.151079240498888 
2.5276657606666304 
2.9387392904773995 
3.400027011623046 
3.644604595353128 
-0.13850175195130177 
0.008633596316670128 
0.34362051329210763 
0.7410860990576729 
1.1628728824648396 
1.5764116690814323 
1.9641678675096257 
2.3274545580601806 
2.6845567054216906 
3.063287299191389 
3.488214337482585 
3.714616416975705 
-0.11645114961334779 
0.042476496077103576 
0.40919393026923906 
0.8488921639509591 
1.3101843921917586 
1.7509415761030482 
2.1497045498733462 
2.5039748934947856 
2.830501647512155 
3.160518080168538 
3.5292960268309557 
3.727703524152692 
-0.07464188122294405 
0.10345703190030578 
0.5346406354720297 
1.049192430592865 
1.551695424550125 
2.002066090136795 
2.386193725588794 
2.7043262388194633 
2.9714889456094253 
3.2244790272463453 
3.510882116862872 
3.668118177552 
-0.060817209160039964 
0.2739057466470145 
0.9511539034608897 
1.5832903665416929 
2.1020214423222594 
2.505869254106383 
2.80856631777908 
3.023940338249818 
3.165060797099024 
3.2563123182547002 
3.362117135027643 
3.4303859346185357 
0.9290565739446477 
1.510197576826291 
2.4690255977027546 
3.0827883179230904 
3.455194534667706 
3.6572141562331426 
3.7368806898590496 
3.72431726998435 
3.6355355955445923 
3.4752574329748684 
3.2571145002642057 
3.1370089021377807 
1.936318615194693 
2.61850169514851 
3.657869187330145 
4.186425800959644 
4.416776597888333 
4.461338380779649 
4.382164352249786 
4.21594498971388 
3.982407681097321 
3.6841656915591696 
3.2746381135030296 
3.0312773630102177 
</DataArray>
<DataArray type="Float64" Name="Nodal_sigma_xy" NumberOfComponents="1" format="ascii" >
0.9880835262268008 
0.5692700518575314 
0.07035685657726347 
0.07084095262599234 
0.2958349628762012 
0.6127124701133209 
0.9559637888326546 
1.2704154271000356 
1.5073469407669458 
1.6258040968333303 
1.6005588929384096 
1.5501204131493285 
0.31946095334988966 
0.32806007038812357 
0.2784659619760834 
0.27654150914856246 
0.45004472799834677 
0.7133170598477435 
1.008190476080365 
1.2857376957779971 
1.5022583663523672 
1.6202205804422727 
1.6181550557836992 
1.5859362985222138 
-0.5870006713844254 
-0.11453580221461282 
0.44179036932859483 
0.5791687761125492 
0.7180997953358698 
0.9113396134001772 
1.1338678302718164 
1.353340514809506 
1.5364820681866145 
1.651346849623803 
1.6748939750570044 
1.6619475015125291 
-0.9313016130702645 
-0.4442522780260825 
0.2952304372121459 
0.6692810403271228 
0.8875816955873079 
1.0828827119856685 
1.2816521051017096 
1.4748174584971754 
1.641414034692393 
1.7544762734235189 
1.7831768879068057 
1.772398295515654 
-1.0886446948486652 
-0.654498453465881 
0.09550954233775862 
0.6107339401558054 
0.9474659906556133 
1.199073311006508 
1.417442178639336 
1.6153953907530871 
1.7854668453015585 
1.9076211256806583 
1.950017202305144 
1.9465081953698014 
-1.1638045750530897 
-0.7874021365222466 
-0.08093651810403599 
0.49683551220640526 
0.927550401521916 
1.2549636489943738 
1.5219819115542932 
1.7510047635402632 
1.9451390366504597 
2.0925589555309596 
2.1666394848758674 
2.1810225704444015 
-1.1980355737033352 
-0.8676344193670366 
-0.21476664084301478 
0.37961992464315797 
0.8697801326999242 
1.2652561391752744 
1.5914850189312566 
1.8683374482332322 
2.1035883722396953 
2.2922928423130378 
2.4157958550441925 
2.457986032445441 
-1.208599649597979 
-0.9095626692873194 
-0.3026310073208644 
0.28527850354264317 
0.8060692143466807 
1.2517836807347464 
1.6332817448713959 
1.9636300750168756 
2.2501727697439042 
2.4918604457210547 
2.6775147644028805 
2.7542352510340136 
-1.2021859179037209 
-0.9211404029325159 
-0.3463708770705979 
0.2263291147352149 
0.7575206285926036 
1.234303719773923 
1.659349946331645 
2.0395910013651797 
2.3796849039815697 
2.6795623687292798 
2.933147141921828 
3.047185966268213 
-1.1807183524849396 
-0.9065023157376648 
-0.3489605828498008 
0.208131284757531 
0.7371679807328477 
1.2280428287207659 
1.6816685878314592 
2.101920908505729 
2.4908250618994594 
2.84740139539186 
3.167795791980793 
3.318287123428135 
-1.1440700948826885 
-0.8676549887782664 
-0.3131548180112798 
0.23261370362967526 
0.7528496010682626 
1.2440079697641835 
1.7104039387798555 
2.1568729101608493 
2.5844870388755057 
2.9906455042002156 
3.3711724341159135 
3.5544760968205127 
-1.091546953944218 
-0.8056866471337009 
-0.2412221100701629 
0.30038306695198047 
0.8096952667978721 
1.290471720663413 
1.7539644365582885 
2.210250825581106 
2.6624426176736224 
3.1068487651100556 
3.537130452793785 
3.747938911216884 
-1.0229551306430018 
-0.7217766844403689 
-0.1351879724093713 
0.4118283073536048 
0.9120803077301247 
1.3749542691854189 
1.8203330597468872 
2.267714969026299 
2.7266887123175856 
3.1946548039019453 
3.6622215605793915 
3.894564875232436 
-0.9396058421946132 
-0.6180744859720884 
0.0027968396880318352 
0.567544645159787 
1.0648109819934732 
1.506089637847286 
1.9192659747011587 
2.3364298200825555 
2.779718792943317 
3.252622073828606 
3.7435228589885616 
3.991401672542181 
-0.8451764647919424 
-0.49796927731252516 
0.17088690144914878 
0.768630510137532 
1.273100327398525 
1.6940353477458705 
2.0642145935737664 
2.4280629537507843 
2.826374960308292 
3.278524952123077 
3.775787796141371 
4.032983720060788 
-0.7449435034437839 
-0.36350748137649824 
0.3715060588147453 
1.018742994880704 
1.5412980609828566 
1.946727462201232 
2.2696285420016884 
2.5607746229517123 
2.878434229487018 
3.270426829913198 
3.7477871566262224 
4.006035735240581 
-0.6382587148757328 
-0.20276407448939168 
0.6283432709239181 
1.3338919816430794 
1.8710429086032543 
2.2589417254483517 
2.534950819090012 
2.7469794841296045 
2.9559269992290487 
3.2343236763242498 
3.639895842965676 
3.8793153806362977 
-0.4749040883306358 
0.07350001091581321 
1.041125500017232 
1.755878550242389 
2.254302943910191 
2.5917691968013328 
2.8110875527754375 
2.9489358274531097 
3.0483128406959317 
3.1740139624306716 
3.4290364254355348 
3.604631341651387 
0.3321029691137084 
0.8995908997284459 
1.7871316242523518 
2.3023265686868104 
2.6226191782489217 
2.8280297897366666 
2.955099727812524 
3.020953834335158 
3.0368650289029113 
3.020591240498512 
3.01699615736039 
3.026541736296721 
1.0315621879264614 
1.5393595108165545 
2.2679704977655315 
2.6038923923866006 
2.7879101557994157 
2.9005003449929445 
2.9688153522352616 
2.997908445414387 
2.981041299175561 
2.904072260038494 
2.7388970663319316 
2.6293650232439028 
</DataArray>
</PointData>
<CellData>
</CellData>
<Points>
<DataArray type="Float64" Name="Points" NumberOfComponents="3" format="ascii">
0.0 50.0 0.0
0.0 45.4545441 0.0
0.0 40.9090919 0.0
0.0 36.363636 0.0
0.0 31.818182 0.0
0.0 27.272728 0.0
0.0 22.727272 0.0
0.0 18.181818 0.0
0.0 13.636364 0.0
0.0 9.090909 0.0
0.0 4.5454545 0.0
0.0 0.0 0.0
2.52631569 50.5263176 0.0
2.52631569 46.1435394 0.0
2.52631569 41.7607651 0.0
2.52631569 37.3779907 0.0
2.52631569 32.9952164 0.0
2.52631569 28.6124401 0.0
2.52631569 24.2296658 0.0
2.52631569 19.8468895 0.0
2.52631569 15.4641151 0.0
2.52631569 11.0813398 0.0
2.52631569 6.69856453 0.0
2.52631569 2.31578946 0.0
5.05263138 51.0526314 0.0
5.05263138 46.8325348 0.0
5.05263138 42.612442 0.0
5.05263138 38.3923454 0.0
5.05263138 34.1722488 0.0
5.05263138 29.9521523 0.0
5.05263138 25.7320576 0.0
5.05263138 21.511961 0.0
5.05263138 17.2918663 0.0
5.05263138 13.0717707 0.0
5.05263138 8.85167503 0.0
5.05263138 4.63157892 0.0
7.57894754 51.578949 0.0
7.57894754 47.5215302 0.0
7.57894754 43.4641151 0.0
7.57894754 39.4067001 0.0
7.57894754 35.3492813 0.0
7.57894754 31.2918663 0.0
7.57894754 27.2344494 0.0
7.57894754 23.1770344 0.0
7.57894754 19.1196175 0.0
7.57894754 15.0622005 0.0
7.57894754 11.0047846 0.0
7.57894754 6.94736862 0.0
10.1052628 52.1052628 0.0
10.1052628 48.2105255 0.0
10.1052628 44.3157883 0.0
10.1052628 40.421051 0.0
10.1052628 36.5263176 0.0
10.1052628 32.6315804 0.0
10.1052628 28.7368412 0.0
10.1052628 24.8421059 0.0
10.1052628 20.9473686 0.0
10.1052628 17.0526314 0.0
10.1052628 13.1578951 0.0
10.1052628 9.26315784 0.0
12.6315794 52.6315804 0.0
12.6315794 48.8995209 0.0
12.6315794 45.1674652 0.0
12.6315794 41.4354057 0.0
12.6315794 37.7033501 0.0
12.6315794 33.9712906 0.0
12.6315794 30.2392349 0.0
12.6315794 26.5071774 0.0
12.6315794 22.7751198 0.0
12.6315794 19.0430622 0.0
12.6315794 15.3110046 0.0
12.6315794 11.5789471 0.0
15.1578951 53.1578941 0.0
15.1578951 49.5885162 0.0
15.1578951 46.0191383 0.0
15.1578951 42.4497604 0.0
15.1578951 38.8803825 0.0
15.1578951 35.3110046 0.0
15.1578951 31.7416267 0.0
15.1578951 28.1722488 0.0
15.1578951 24.6028709 0.0
15.1578951 21.033493 0.0
15.1578951 17.4641151 0.0
15.1578951 13.8947372 0.0
17.6842098 53.6842117 0.0
17.6842098 50.2775116 0.0
17.6842098 46.8708153 0.0
17.6842098 43.4641151 0.0
17.6842098 40.057415 0.0
17.6842098 36.6507187 0.0
17.6842098 33.2440186 0.0
17.6842098 29.8373203 0.0
17.6842098 26.4306221 0.0
17.6842098 23.0239239 0.0
17.6842098 19.6172256 0.0
17.6842098 16.2105255 0.0
20.2105255 54.2105255 0.0
20.2105255 50.966507 0.0
20.2105255 47.7224884 0.0
20.2105255 44.4784698 0.0
20.2105255 41.2344513 0.0
20.2105255 37.9904289 0.0
20.2105255 34.7464104 0.0
20.2105255 31.5023918 0.0
20.2105255 28.2583733 0.0
20.2105255 25.0143547 0.0
20.2105255 21.7703342 0.0
20.2105255 18.5263157 0.0
22.7368412 54.7368431 0.0
22.7368412 51.6555023 0.0
22.7368412 48.5741615 0.0
22.7368412 45.4928246 0.0
22.7368412 42.4114838 0.0
22.7368412 39.330143 0.0
22.7368412 36.2488022 0.0
22.7368412 33.1674652 0.0
22.7368412 30.0861244 0.0
22.7368412 27.0047855 0.0
22.7368412 23.9234447 0.0
22.7368412 20.8421059 0.0
25.2631588 55.2631569 0.0
25.2631588 52.3444977 0.0
25.2631588 49.4258385 0.0
25.2631588 46.5071754 0.0
25.2631588 43.5885162 0.0
25.2631588 40.669857 0.0
25.2631588 37.7511978 0.0
25.2631588 34.8325348 0.0
25.2631588 31.9138756 0.0
25.2631588 28.9952145 0.0
25.2631588 26.0765553 0.0
25.2631588 23.1578941 0.0
27.7894745 55.7894745 0.0
27.7894745 53.033493 0.0
27.7894745 50.2775116 0.0
27.7894745 47.5215302 0.0
27.7894745 44.7655487 0.0
27.7894745 42.0095711 0.0
27.7894745 39.2535896 0.0
27.7894745 36.4976082 0.0
27.7894745 33.7416267 0.0
27.7894745 30.9856453 0.0
27.7894745 28.2296658 0.0
27.7894745 25.4736843 0.0
30.3157902 56.3157883 0.0
30.3157902 53.7224884 0.0
30.3157902 51.1291847 0.0
30.3157902 48.5358849 0.0
30.3157902 45.942585 0.0
30.3157902 43.3492813 0.0
30.3157902 40.7559814 0.0
30.3157902 38.1626778 0.0
30.3157902 35.5693779 0.0
30.3157902 32.976078 0.0
30.3157902 30.3827744 0.0
30.3157902 27.7894745 0.0
32.8421059 56.8421059 0.0
32.8421059 54.4114838 0.0
32.8421059 51.9808617 0.0
32.8421059 49.5502396 0.0
32.8421059 47.1196175 0.0
32.8421059 44.6889954 0.0
32.8421059 42.2583733 0.0
32.8421059 39.8277512 0.0
32.8421059 37.3971291 0.0
32.8421059 34.966507 0.0
32.8421059 32.5358849 0.0
32.8421059 30.1052628 0.0
35.3684196 57.3684196 0.0
35.3684196 55.1004791 0.0
35.3684196 52.8325348 0.0
35.3684196 50.5645943 0.0
35.3684196 48.2966499 0.0