<?xml version="1.0"?>
<VTKFile type="UnstructuredGrid" version="0.1" byte_order="LittleEndian" compressor="vtkZLibDataCompressor">
<UnstructuredGrid>
<Piece NumberOfPoints="297" NumberOfCells="256">
<PointData>
<DataArray type="Float64" Name="displacement" NumberOfComponents="3" format="ascii" >
0.0 -0.0018  0.
-848.167081203 -465.664722428  0.
-1608.78364926 -888.084537233  0.
-2345.63834868 -1475.79068579  0.
-3064.57428792 -2234.84914057  0.
-3761.75980216 -3169.88011033  0.
-4435.14298147 -4276.24692675  0.
-5083.68500265 -5548.10532862  0.
-5706.98254718 -6979.09228479  0.
-6304.89178755 -8562.80144328  0.
-6877.36920226 -10292.8371727  0.
-7424.40384978 -12162.8218418  0.
-7945.99404763 -14166.3876306  0.
-8442.14007351 -16297.1711971  0.
-8912.84233634 -18548.8109132  0.
-9358.10107612 -20914.9457337  0.
-9777.9164021 -23389.2147831  0.
-10172.2883574 -25965.2572248  0.
-10541.2169586 -28636.7122256  0.
-10884.7022165 -31397.2189507  0.
-11202.7441488 -34240.4165677  0.
-11495.3427952 -37159.9442661  0.
-11762.4982291 -40149.4413179  0.
-12004.2105324 -43202.5472514  0.
-12220.4795609 -46312.9022786  0.
-12411.3039538 -49474.1482586  0.
-12576.6776581 -52679.9299953  0.
-12716.5800942 -55923.8968807  0.
-12830.9481169 -59199.6891244  0.
-12919.620395 -62500.9229373  0.
-12982.1616923 -65820.8027251  0.
-13017.904013 -69152.434211  0.
-13026.9499907 -72475.9361307  0.
0.000188671875 -0.0010125  0.
-538.359276393 -252.27536426  0.
-1131.06420654 -693.073523918  0.
-1697.57031134 -1282.24913122  0.
-2242.31446078 -2048.09013936  0.
-2767.1521774 -2989.56140427  0.
-3272.7749854 -4102.59582524  0.
-3759.32693225 -5381.12714151  0.
-4226.82154324 -6818.79587496  0.
-4675.24918081 -8409.18562086  0.
-5104.60151267 -10145.9012055  0.
-5514.87418882 -12022.565153  0.
-5906.06534386 -14032.8099717  0.
-6278.17428466 -16170.2724661  0.
-6631.20078495 -18428.5910752  0.
-6965.14478212 -20801.4047781  0.
-7280.00626333 -23282.3527075  0.
-7575.78522817 -25865.0740286  0.
-7852.48167817 -28543.2079091  0.
-8110.09561441 -31310.3935136  0.
-8348.62703592 -34160.2700086  0.
-8568.07593463 -37086.4765799  0.
-8768.44227879 -40082.6524897  0.
-8949.72596637 -43142.4372402  0.
-9111.92671281 -46259.4710014  0.
-9255.04382178 -49427.3955123  0.
-9379.07587755 -52639.8558174  0.
-9484.0209222 -55890.5005353  0.
-9569.87997626 -59172.9795045  0.
-9636.68052129 -62480.8744029  0.
-9684.55160129 -65807.6501734  0.
-9714.16544591 -69145.1025262  0.
-9723.08273699 -72487.2166176  0.
0.000215625 -0.00045  0.
-345.737900518 -153.907632596  0.
-719.603264697 -551.789799225  0.
-1099.32585446 -1142.71886946  0.
-1465.82516963 -1912.96980589  0.
-1817.80916345 -2859.97632659  0.
-2155.8508077 -3978.21431179  0.
-2480.59627518 -5261.73322519  0.
-2792.38947233 -6704.25829199  0.
-3091.38005849 -8299.44927201  0.
-3377.62426145 -10040.9448419  0.
-3651.14062011 -11922.3817948  0.
-3911.93434998 -13937.3976237  0.
-4160.00656284 -16079.6306965  0.
-4395.35733147 -18342.7198502  0.
-4617.98656018 -20720.3041316  0.
-4827.89417455 -23206.0226668  0.
-5025.08013605 -25793.5146087  0.
-5209.54442643 -28476.419118  0.
-5381.2870339 -31248.3753582  0.
-5540.30794395 -34103.0224966  0.
-5686.60713654 -37033.9997124  0.
-5820.18460701 -40034.9462165  0.
-5941.04048198 -43099.5012973  0.
-6049.17545369 -46221.3043886  0.
-6144.59214534 -49393.995139  0.
-6227.29887415 -52611.2129067  0.
-6297.3186317 -55866.5952298  0.
-6354.70778852 -59153.7649269  0.
-6399.57507591 -62466.3145627  0.
-6432.09031951 -65797.6185872  0.
-6451.75050382 -69141.257717  0.
-6457.52822591 -72493.1983283  0.
0.000134765625 -0.0001125  0.
-169.128117019 -107.472273512  0.
-352.441634126 -475.9176385  0.
-539.903152062 -1058.72443199  0.
-723.80898828 -1831.12517639  0.
-900.531695809 -2781.59430533  0.
-1069.9843196 -3903.28759133  0.
-1232.55286738 -5189.97183554  0.
-1388.52593357 -6635.49113349  0.
-1538.04743299 -8233.59334084  0.
-1681.17730084 -9977.96733081  0.
-1817.93731994 -11862.2711119  0.
-1948.33441751 -13880.1502461  0.
-2072.37044168 -16025.2457425  0.
-2190.04574004 -18291.1971841  0.
-2301.36030688 -20671.6437763  0.
-2406.31409283 -23160.224656  0.
-2504.90706446 -25750.5789632  0.
-2597.13920379 -28436.3458499  0.
-2683.0104991 -31211.1644768  0.
-2762.52093884 -34068.6740097  0.
-2835.67051545 -37002.5136089  0.
-2902.45926468 -40006.3223865  0.
-2962.88742565 -43073.739255  0.
-3016.95596404 -46198.4024712  0.
-3064.66805649 -49373.9483663  0.
-3106.03276075 -52594.0085766  0.
-3141.07268552 -55852.203901  0.
-3169.83433647 -59142.1405967  0.
-3192.38678327 -62457.4101462  0.
-3208.68380544 -65791.7302924  0.
-3218.43164163 -69139.4541601  0.
-3221.30413503 -72496.1419793  0.
0.0 0.0  0.
3.82269975219e-11 -93.4780180355  0.
7.94818201368e-11 -452.038801138  0.
1.22946176116e-10 -1031.21295846  0.
1.6745460071e-10 -1803.66301232  0.
2.11984896984e-10 -2755.35355355  0.
2.56766864046e-10 -3878.23938643  0.
3.00347461995e-10 -5166.0212709  0.
3.43208765453e-10 -6612.55691819  0.
3.85996338012e-10 -8211.63747786  0.
4.28411322677e-10 -9956.97369928  0.
4.7155675908e-10 -11842.2339693  0.
5.1596699295e-10 -13861.0677641  0.
5.60159311675e-10 -16007.1174417  0.
6.02423955101e-10 -18274.0229767  0.
6.42519997298e-10 -20655.4236656  0.
6.79795432302e-10 -23144.9586559  0.
7.15563286163e-10 -25736.2670831  0.
7.48408730048e-10 -28422.9880954  0.
7.82142571849e-10 -31198.7608522  0.
8.2086134942e-10 -34057.2245178  0.
8.58739167987e-10 -36992.0182409  0.
8.87110199479e-10 -39996.7810804  0.
9.17620010829e-10 -43065.1517587  0.
9.39803247514e-10 -46190.7679374  0.
9.65168665069e-10 -49367.2644092  0.
9.90147141281e-10 -52588.2689685  0.
1.00952469705e-09 -55847.3963546  0.
1.027130841e-09 -59138.2428478  0.
1.04019590749e-09 -62454.4306294  0.
1.05646119508e-09 -65789.8142965  0.
1.05804460632e-09 -69138.8990654  0.
1.0586712445e-09 -72497.0473555  0.
-0.000134765625 -0.0001125  0.
169.128117019 -107.472273512  0.
352.441634126 -475.9176385  0.
539.903152062 -1058.72443199  0.
723.80898828 -1831.12517639  0.
900.53169581 -2781.59430533  0.
1069.9843196 -3903.28759133  0.
1232.55286738 -5189.97183554  0.
1388.52593357 -6635.49113349  0.
1538.04743299 -8233.59334084  0.
1681.17730084 -9977.96733081  0.
1817.93731994 -11862.2711119  0.
1948.33441751 -13880.1502461  0.
2072.37044168 -16025.2457425  0.
2190.04574004 -18291.1971841  0.
2301.36030688 -20671.6437763  0.
2406.31409283 -23160.224656  0.
2504.90706446 -25750.5789632  0.
2597.13920379 -28436.3458499  0.
2683.0104991 -31211.1644768  0.
2762.52093884 -34068.6740097  0.
2835.67051545 -37002.5136089  0.
2902.45926469 -40006.3223865  0.
2962.88742565 -43073.739255  0.
3016.95596405 -46198.4024712  0.
3064.66805649 -49373.9483663  0.
3106.03276075 -52594.0085766  0.
3141.07268552 -55852.203901  0.
3169.83433647 -59142.1405967  0.
3192.38678328 -62457.4101462  0.
3208.68380544 -65791.7302924  0.
3218.43164163 -69139.4541601  0.
3221.30413503 -72496.1419793  0.
-0.000215625 -0.00045  0.
345.737900518 -153.907632596  0.
719.603264697 -551.789799225  0.
1099.32585446 -1142.71886946  0.
1465.82516963 -1912.96980589  0.
1817.80916345 -2859.97632659  0.
2155.8508077 -3978.21431179  0.
2480.59627518 -5261.73322519  0.
2792.38947233 -6704.25829199  0.
3091.38005849 -8299.44927201  0.
3377.62426145 -10040.9448419  0.
3651.14062011 -11922.3817948  0.
3911.93434998 -13937.3976237  0.
4160.00656284 -16079.6306965  0.
4395.35733147 -18342.7198502  0.
4617.98656018 -20720.3041316  0.
4827.89417455 -23206.0226668  0.
5025.08013605 -25793.5146087  0.
5209.54442643 -28476.419118  0.
5381.2870339 -31248.3753582  0.
5540.30794396 -34103.0224966  0.
5686.60713654 -37033.9997124  0.
5820.18460701 -40034.9462165  0.
5941.04048198 -43099.5012973  0.
6049.17545369 -46221.3043886  0.
6144.59214534 -49393.995139  0.
6227.29887416 -52611.2129067  0.
6297.31863171 -55866.5952298  0.
6354.70778852 -59153.7649269  0.
6399.57507592 -62466.3145627  0.
6432.09031951 -65797.6185872  0.
6451.75050382 -69141.257717  0.
6457.52822592 -72493.1983283  0.
-0.000188671875 -0.0010125  0.
538.359276393 -252.27536426  0.
1131.06420654 -693.073523918  0.
1697.57031134 -1282.24913122  0.
2242.31446078 -2048.09013936  0.
2767.1521774 -2989.56140427  0.
3272.7749854 -4102.59582524  0.
3759.32693225 -5381.12714151  0.
4226.82154324 -6818.79587496  0.
4675.24918081 -8409.18562086  0.
5104.60151267 -10145.9012055  0.
5514.87418883 -12022.565153  0.
5906.06534387 -14032.8099717  0.
6278.17428466 -16170.2724661  0.
6631.20078495 -18428.5910752  0.
6965.14478212 -20801.4047781  0.
7280.00626333 -23282.3527075  0.
7575.78522817 -25865.0740286  0.
7852.48167818 -28543.2079091  0.
8110.09561441 -31310.3935136  0.
8348.62703592 -34160.2700086  0.
8568.07593463 -37086.4765799  0.
8768.44227879 -40082.6524897  0.
8949.72596637 -43142.4372402  0.
9111.92671281 -46259.4710014  0.
9255.04382178 -49427.3955123  0.
9379.07587755 -52639.8558174  0.
9484.0209222 -55890.5005353  0.
9569.87997627 -59172.9795045  0.
9636.68052129 -62480.8744029  0.
9684.5516013 -65807.6501734  0.
9714.16544591 -69145.1025262  0.
9723.08273699 -72487.2166176  0.
0.0 -0.0018  0.
848.167081203 -465.664722428  0.
1608.78364926 -888.084537233  0.
2345.63834868 -1475.79068579  0.
3064.57428792 -2234.84914057  0.
3761.75980216 -3169.88011033  0.
4435.14298147 -4276.24692675  0.
5083.68500265 -5548.10532862  0.
5706.98254718 -6979.09228479  0.
6304.89178756 -8562.80144328  0.
6877.36920226 -10292.8371727  0.
7424.40384978 -12162.8218418  0.
7945.99404763 -14166.3876306  0.
8442.14007351 -16297.1711971  0.
8912.84233634 -18548.8109132  0.
9358.10107612 -20914.9457337  0.
9777.9164021 -23389.2147831  0.
10172.2883574 -25965.2572248  0.
10541.2169586 -28636.7122256  0.
10884.7022165 -31397.2189507  0.
11202.7441488 -34240.4165677  0.
11495.3427952 -37159.9442661  0.
11762.4982291 -40149.4413179  0.
12004.2105324 -43202.5472514  0.
12220.4795609 -46312.9022786  0.
12411.3039538 -49474.1482586  0.
12576.6776581 -52679.9299953  0.
12716.5800942 -55923.8968807  0.
12830.9481169 -59199.6891244  0.
12919.620395 -62500.9229373  0.
12982.1616923 -65820.8027251  0.
13017.904013 -69152.434211  0.
13026.9499907 -72475.9361307  0.
</DataArray>
<DataArray type="Float64" Name="Nodal_sigma_xx" NumberOfComponents="1" format="ascii" >
-5977.05603315 
-5616.79175735 
-5172.65191788 
-5019.35400408 
-4873.30391187 
-4714.08317888 
-4545.89686368 
-4373.45874732 
-4199.31239928 
-4024.56366528 
-3849.63024231 
-3674.65031755 
-3499.66301452 
-3324.67677555 
-3149.69221801 
-2974.7086594 
-2799.72555952 
-2624.74264697 
-2449.75982238 
-2274.77708692 
-2099.79451938 
-1924.81225723 
-1749.83032192 
-1574.84774278 
-1399.85931313 
-1224.84540896 
-1049.74405916 
-874.38276277 
-698.331676836 
-520.659250311 
-339.763132774 
-162.840394484 
-77.4153332342 
-4913.56429152 
-4783.94757402 
-4559.82306191 
-4392.74351639 
-4247.63864195 
-4101.18725809 
-3952.16833588 
-3801.39222072 
-3649.79886286 
-3497.87541503 
-3345.83635949 
-3193.76188773 
-3041.67856466 
-2889.5938599 
-2737.50937533 
-2585.4252197 
-2433.34125932 
-2281.25739218 
-2129.17357309 
-1977.08979745 
-1825.00608467 
-1672.92243783 
-1520.83867389 
-1368.75379827 
-1216.66406645 
-1064.55757044 
-912.40176219 
-760.116254763 
-607.550723128 
-454.457368251 
-301.331756357 
-149.035454167 
-73.1475559872 
-3127.7433852 
-3203.33011869 
-3224.8191944 
-3108.50959418 
-2988.01751121 
-2874.3569077 
-2764.99704131 
-2657.59992237 
-2550.96261156 
-2444.58401216 
-2338.28121754 
-2231.99602295 
-2125.71284889 
-2019.42875027 
-1913.14376282 
-1806.85829455 
-1700.57261598 
-1594.28685476 
-1488.00105574 
-1381.71521718 
-1275.42929959 
-1169.14322678 
-1062.85694311 
-956.570755697 
-850.286687123 
-744.012910955 
-637.776372295 
-531.655304935 
-425.852202209 
-320.832997442 
-217.262113276 
-110.889805149 
-55.855052214 
-1726.92651856 
-1766.41338878 
-1806.40972486 
-1775.76482638 
-1709.64283794 
-1641.25370026 
-1576.06157956 
-1513.42759269 
-1452.10026424 
-1391.32428512 
-1330.75094483 
-1270.24284427 
-1209.75247544 
-1149.26560086 
-1088.77877993 
-1028.29153936 
-967.804005574 
-907.316321279 
-846.828556569 
-786.340722346 
-725.852800376 
-665.364828852 
-604.877232248 
-544.391950915 
-483.915809096 
-423.469335626 
-363.106595326 
-302.950380937 
-243.213436419 
-184.060215252 
-124.438253239 
-62.474292144 
-30.7105403192 
-390.58496678 
-406.964700286 
-428.134132582 
-428.818083778 
-416.41797362 
-399.72884145 
-383.385025565 
-367.820173143 
-352.754739384 
-337.924691346 
-323.189003148 
-308.48646645 
-293.79406265 
-279.104194255 
-264.414720635 
-249.725183401 
-235.035550562 
-220.345858363 
-205.656131859 
-190.966378498 
-176.276603073 
-161.586860197 
-146.897434698 
-132.209400393 
-117.526149221 
-102.857025112 
-88.2244662828 
-73.6717138316 
-59.2524163012 
-44.8595027344 
-30.074011966 
-14.5727013784 
-6.63373935564 
928.478540868 
935.486862629 
936.241308721 
914.101991005 
880.009774236 
844.480724488 
810.740944815 
778.416053943 
746.827900816 
715.553359055 
684.395122968 
653.274697382 
622.164697408 
591.056823869 
559.949030437 
528.841013791 
497.732834342 
466.624569959 
435.516259851 
404.407910589 
373.299513479 
342.191095342 
311.082911291 
279.976096976 
248.874593822 
217.790126113 
186.753239298 
155.831238926 
125.137865235 
94.7065650556 
64.191258548 
33.1011279235 
17.3674626924 
2275.04042368 
2304.25415287 
2314.41172083 
2254.16641112 
2169.38872826 
2084.2124266 
2002.71734328 
1923.78202154 
1846.10143742 
1768.93570023 
1691.9547719 
1615.03177202 
1538.12387994 
1461.21866031 
1384.31328019 
1307.40744276 
1230.50131474 
1153.5950434 
1076.68869694 
999.782283976 
922.875780342 
845.969200022 
769.062880683 
692.158495202 
615.26214433 
538.392651714 
461.600857442 
385.005423255 
308.828497256 
233.281113016 
157.864241069 
80.9705833959 
41.895189944 
3753.25429861 
3757.21075423 
3700.86059928 
3573.40411754 
3442.07550091 
3315.36382553 
3191.06122991 
3067.80992822 
2944.94309429 
2822.20024036 
2699.49100038 
2576.78835035 
2454.08577723 
2331.38239738 
2208.67846197 
2085.97425581 
1963.26993853 
1840.56557993 
1717.86120319 
1595.15680651 
1472.45236659 
1349.74783355 
1227.04314469 
1104.33836178 
981.634288869 
858.934645325 
736.25259454 
613.62916112 
491.175549644 
369.204621562 
248.090604405 
126.691546087 
65.5998430986 
4546.11594855 
4513.54639768 
4391.47337267 
4223.6720693 
4073.00501552 
3928.63700733 
3784.37082945 
3639.54723277 
3494.28796233 
3348.81747037 
3203.25877793 
3057.66838376 
2912.06794679 
2766.46486497 
2620.86129886 
2475.25775085 
2329.65427908 
2184.05085928 
2038.44747046 
1892.84410495 
1747.24075408 
1601.63735556 
1456.03361585 
1310.42848369 
1164.81871145 
1019.19570842 
873.538974069 
727.813482484 
581.982430011 
436.26923086 
291.730607835 
148.390096146 
76.8209554547 
</DataArray>
<DataArray type="Float64" Name="Nodal_sigma_yy" NumberOfComponents="1" format="ascii" >
-1138.79142837 
-628.682884813 
-130.311427222 
-135.411754032 
-129.678111196 
-129.266029938 
-126.100762159 
-122.011811316 
-117.397141391 
-112.59317811 
-107.721189667 
-102.829431788 
-97.9328627872 
-93.0356738396 
-88.1386808502 
-83.2419036469 
-78.3452472013 
-73.4486467942 
-68.5520748099 
-63.6555290419 
-58.7590231635 
-53.8625663791 
-48.96606673 
-44.0689921663 
-39.1691471004 
-34.2599073154 
-29.3197912471 
-24.3079437912 
-19.0489864456 
-13.6346028043 
-5.88373266488 
-21.2092627393 
-41.6003193833 
-1014.33788417 
-634.838923666 
-202.522638459 
-139.930133453 
-129.145277893 
-127.342902235 
-125.048328185 
-121.519925612 
-117.207360658 
-112.527805565 
-107.701906659 
-102.824864177 
-97.9322933687 
-93.0358821097 
-88.1388964106 
-83.2420230137 
-78.3453021949 
-73.448674595 
-68.5521005525 
-63.655568752 
-58.7590731177 
-53.8625326498 
-48.9655140323 
-44.0663665082 
-39.1598350771 
-34.2313056262 
-29.2449729735 
-24.1274969996 
-18.7584872508 
-13.160704876 
-8.29077443991 
-21.403556454 
-36.553925869 
-752.973146906 
-561.013739316 
-272.30017066 
-154.999617892 
-130.58411296 
-125.911574461 
-123.926807691 
-120.943053458 
-116.963801583 
-112.438161163 
-107.673002061 
-102.816991982 
-97.930733807 
-93.0358528623 
-88.1390800801 
-83.242152125 
-78.3453686181 
-73.4487101235 
-68.5521312224 
-63.6556072908 
-58.7590942011 
-53.8623646515 
-48.9644849485 
-44.0623147176 
-39.1467039822 
-34.1942405073 
-29.1538621395 
-23.9390177734 
-18.5120274762 
-13.2570302203 
-11.4683195943 
-18.6720169015 
-25.1723419364 
-454.782043734 
-368.193785718 
-230.699053224 
-159.851995147 
-135.138674798 
-128.557301742 
-125.069281806 
-121.375656491 
-117.106925381 
-112.478657002 
-107.681743415 
-102.81762829 
-97.9300258176 
-93.0352910764 
-88.1387922843 
-83.2420302013 
-78.3453219656 
-73.448689205 
-68.5521088085 
-63.6555606672 
-58.7589981924 
-53.8622183168 
-48.9644618826 
-44.063319289 
-39.1520989753 
-34.2145961816 
-29.2180504033 
-24.1196927024 
-18.9441788033 
-14.2591687568 
-11.6282515769 
-12.1521973632 
-13.2175978978 
-130.194988927 
-135.654900095 
-142.711377527 
-142.939361259 
-138.805991207 
-133.24294715 
-127.795008522 
-122.606724381 
-117.584913128 
-112.641563782 
-107.729667716 
-102.82882215 
-97.9313542167 
-93.0347314184 
-88.1382402118 
-83.2417278006 
-78.3451835209 
-73.4486194544 
-68.552043953 
-63.6554594994 
-58.7588676912 
-53.8622867323 
-48.9658115661 
-44.0698001312 
-39.1753830738 
-34.2856750374 
-29.4081554277 
-24.557237944 
-19.7508054338 
-14.9531675781 
-10.0246706553 
-4.85756712616 
-2.21124645192 
188.632717835 
91.2182770025 
-59.3570854873 
-127.36894998 
-141.405679771 
-137.033690183 
-130.037596442 
-123.628189758 
-117.983862429 
-112.778318354 
-107.770197207 
-102.838420674 
-97.9325668588 
-93.0343012544 
-88.1377908802 
-83.2414783235 
-78.3450684452 
-73.4485612348 
-68.5519900975 
-63.6553765852 
-58.7587641067 
-53.8623595202 
-48.9669784365 
-44.075298691 
-39.1949727827 
-34.3451403228 
-29.5664016061 
-24.9200213011 
-20.4143449247 
-15.5253813087 
-8.45407998681 
2.36114262312 
8.76990535568 
468.738826398 
261.321750713 
-31.1689871973 
-129.781443129 
-142.292148024 
-137.46991924 
-130.166424985 
-123.662913485 
-117.989923131 
-112.777942817 
-107.769146486 
-102.837758325 
-97.9322558437 
-93.034177125 
-88.1377474664 
-83.2414651389 
-78.3450651286 
-73.4485603309 
-68.551988378 
-63.6553704441 
-58.7587455497 
-53.8623109359 
-48.9668691925 
-44.0751054477 
-39.1948102823 
-34.3458459061 
-29.5713094781 
-24.9442761197 
-20.4958741749 
-15.9269312551 
-8.33097114164 
8.69894298378 
20.5190545133 
627.567886539 
292.59331707 
-83.7981824169 
-133.182999497 
-139.37576912 
-134.598241949 
-128.654040471 
-123.007505223 
-117.744562199 
-112.697252658 
-107.746546378 
-102.832981615 
-97.9319691102 
-93.0346053966 
-88.138074708 
-83.2416316182 
-78.345138069 
-73.4485961551 
-68.5520227475 
-63.6554282254 
-58.7588329084 
-53.8623354443 
-48.9663290354 
-44.0721123243 
-39.1834241174 
-34.3096694111 
-29.4714162434 
-24.701534215 
-20.0332372437 
-15.2568773539 
-9.45627621087 
13.955587094 
34.0380215728 
661.811400175 
260.934431588 
-130.081421182 
-129.81555756 
-137.088187587 
-132.54936058 
-127.741249249 
-122.625360203 
-117.611004256 
-112.655553526 
-107.735965124 
-102.831212809 
-97.9321597886 
-93.0349630229 
-88.1382921994 
-83.2417325377 
-78.3451796131 
-73.4486157678 
-68.5520424952 
-63.655464949 
-58.758898603 
-53.8624008437 
-48.9661686296 
-44.0707608656 
-39.1777201281 
-34.2899928661 
-29.4152371148 
-24.5484829708 
-19.7340958295 
-14.4954036793 
-10.1271089814 
16.3924966267 
41.4021934569 
</DataArray>
<DataArray type="Float64" Name="Nodal_sigma_xy" NumberOfComponents="1" format="ascii" >
-1416.87794513 
-795.212285351 
-153.767823991 
-134.535430466 
-142.096221439 
-152.656733206 
-157.849488012 
-160.119909447 
-160.956192159 
-161.230208335 
-161.305845773 
-161.321448028 
-161.322120844 
-161.320548836 
-161.319396849 
-161.318821864 
-161.318579805 
-161.318480852 
-161.318417329 
-161.318319083 
-161.318122971 
-161.31780987 
-161.317681481 
-161.319408556 
-161.329419603 
-161.36788675 
-161.492610859 
-161.838026452 
-162.744313329 
-164.532151336 
-168.664930157 
-148.85193273 
-126.038527988 
-1068.90889673 
-750.758150553 
-362.725568794 
-286.067075077 
-283.222658957 
-290.62878954 
-295.935903793 
-298.555335564 
-299.634633276 
-300.023500253 
-300.145882662 
-300.178007677 
-300.183792287 
-300.183520428 
-300.182582708 
-300.181982526 
-300.181694088 
-300.181563836 
-300.181479799 
-300.181368422 
-300.181190071 
-300.181041147 
-300.181616543 
-300.185743323 
-300.202757211 
-300.259414474 
-300.423078818 
-300.838002924 
-301.73581152 
-303.184853284 
-303.36046538 
-289.796117696 
-276.901804909 
-509.241808403 
-587.238925262 
-613.43658501 
-546.674382708 
-529.610860048 
-528.283929234 
-529.84992894 
-531.078350937 
-531.70648603 
-531.971290993 
-532.068577304 
-532.099890041 
-532.108395136 
-532.110069034 
-532.110092909 
-532.109889876 
-532.10974616 
-532.109667329 
-532.10961604 
-532.109566968 
-532.10954064 
-532.109719367 
-532.110829584 
-532.115215343 
-532.129458182 
-532.169697199 
-532.268901023 
-532.472968444 
-532.748031516 
-532.568846241 
-529.406201654 
-527.786132957 
-529.008775115 
-201.974176252 
-401.450238697 
-649.512748918 
-696.437460986 
-689.585640104 
-680.975766008 
-675.951972492 
-673.706019116 
-672.83921764 
-672.545882545 
-672.460373682 
-672.440752535 
-672.438620555 
-672.439734228 
-672.440765352 
-672.441318612 
-672.441561948 
-672.441665024 
-672.441731318 
-672.441828419 
-672.442009451 
-672.442258731 
-672.442175975 
-672.439833726 
-672.42830584 
-672.386401353 
-672.257374559 
-671.907334292 
-671.089019913 
-669.466915524 
-668.329316943 
-674.525716405 
-680.802406767 
-84.8591914533 
-316.344791655 
-633.430082103 
-734.366430058 
-745.276858648 
-735.84278606 
-727.989393558 
-723.873447989 
-722.114059674 
-721.459837356 
-721.246543884 
-721.187495929 
-721.175341785 
-721.174812842 
-721.176038797 
-721.17693931 
-721.177396561 
-721.177610437 
-721.177748655 
-721.17792181 
-721.178171379 
-721.178273312 
-721.176924695 
-721.169148906 
-721.139135323 
-721.043064933 
-720.774955458 
-720.124574942 
-718.816504381 
-717.159247983 
-717.768552148 
-726.391362793 
-733.600887074 
-108.937391117 
-324.662230978 
-610.194197591 
-689.08140619 
-694.884282171 
-688.159441511 
-682.811523963 
-680.075002075 
-678.920763755 
-678.496617283 
-678.360099508 
-678.323014983 
-678.31571585 
-678.315609626 
-678.316488914 
-678.317099006 
-678.317402204 
-678.317542139 
-678.317632517 
-678.317748202 
-678.317922132 
-678.318023873 
-678.317240697 
-678.312398103 
-678.293267529 
-678.231120565 
-678.055398997 
-677.620684076 
-676.720064783 
-675.408071868 
-675.661882196 
-683.496444637 
-690.359753502 
-286.304251584 
-420.072939547 
-552.836662551 
-546.821354876 
-541.587106325 
-541.876085601 
-542.791653202 
-543.397845165 
-543.68690899 
-543.803789746 
-543.845167182 
-543.857935511 
-543.861181548 
-543.861713934 
-543.86165106 
-543.861538704 
-543.861469467 
-543.8614336 
-543.861410317 
-543.861385703 
-543.86136354 
-543.861411301 
-543.861821205 
-543.863579724 
-543.869559604 
-543.887051295 
-543.93177038 
-544.026388603 
-544.166001096 
-544.053518395 
-543.120880686 
-546.912009689 
-551.446496894 
-588.929535892 
-491.879379762 
-346.317484687 
-297.164057736 
-301.057418757 
-308.986002931 
-314.050599742 
-316.413643235 
-317.355385319 
-317.683999909 
-317.783644139 
-317.808224795 
-317.811871299 
-317.811135708 
-317.810163016 
-317.809599847 
-317.809341752 
-317.809228993 
-317.809156359 
-317.80905495 
-317.808878339 
-317.808676243 
-317.80896678 
-317.812024843 
-317.825669416 
-317.873063604 
-318.014147622 
-318.383978703 
-319.20510378 
-320.690159321 
-321.398335478 
-320.931721261 
-320.686034822 
-759.811551969 
-494.974401701 
-184.325516659 
-147.240234229 
-162.454128497 
-172.837664983 
-178.388560567 
-180.680802351 
-181.528898434 
-181.799955454 
-181.873577466 
-181.887908991 
-181.888042199 
-181.886259526 
-181.885037599 
-181.884442339 
-181.884195803 
-181.884096401 
-181.884032634 
-181.883931941 
-181.883725897 
-181.883382158 
-181.883167538 
-181.884703485 
-181.894274168 
-181.932486386 
-182.05613541 
-182.414109563 
-183.294612678 
-185.404623419 
-188.243800861 
-186.469056391 
-183.349153846 
</DataArray>
</PointData>
<CellData>
<DataArray type="Float64" Name="Cell_S_xx" NumberOfComponents="1" format="ascii">
-5977.05603315 
-5256.52748156 
-5088.7763542 
-4949.93165396 
-4796.67616978 
-4631.49018798 
-4460.30353937 
-4286.61395527 
-4112.01084328 
-3937.11648727 
-3762.14399734 
-3587.15663775 
-3412.16939129 
-3237.18415982 
-3062.2002762 
-2887.2170426 
-2712.23407645 
-2537.25121748 
-2362.26842727 
-2187.28574658 
-2012.30329219 
-1837.32122226 
-1662.33942158 
-1487.35606398 
-1312.36256229 
-1137.32825564 
-962.159862675 
-786.605662865 
-610.057690807 
-431.260809814 
-248.265455734 
-77.4153332342 
-3850.07254989 
-4052.13423147 
-3841.8541804 
-3690.41187698 
-3553.53486706 
-3423.04780753 
-3293.83180862 
-3164.81957961 
-3035.75107328 
-2906.6232563 
-2777.46169704 
-2648.28521878 
-2519.10301083 
-2389.91887767 
-2260.73418762 
-2131.5493724 
-2002.36454584 
-1873.17972893 
-1743.99491868 
-1614.81009725 
-1485.62520266 
-1356.44003422 
-1227.2540175 
-1098.06569002 
-968.871949514 
-839.667514311 
-710.45141614 
-581.248077374 
-452.291461465 
-324.219510919 
-201.58124896 
-68.8797787402 
-2405.41422051 
-2505.69947287 
-2499.58889285 
-2402.18342651 
-2305.93987429 
-2214.90508193 
-2128.20346716 
-2043.54483408 
-1959.73495929 
-1876.22675979 
-1792.81315704 
-1709.42401892 
-1626.03914703 
-1542.65396557 
-1459.26802044 
-1375.88159773 
-1292.49494794 
-1209.10819633 
-1125.72137904 
-1042.33447374 
-958.947424719 
-875.560245532 
-792.173475161 
-708.7898401 
-625.419268855 
-542.092911138 
-458.893647591 
-376.028078633 
-293.841191365 
-212.979826018 
-130.267867208 
-42.8303256879 
-1048.43881661 
-1106.1010451 
-1114.2494886 
-1087.03749759 
-1043.41055338 
-1000.75929145 
-960.378477688 
-921.583591834 
-883.537671775 
-845.797749644 
-808.16611286 
-770.568088268 
-732.978647532 
-695.390643311 
-657.802490398 
-620.214048891 
-582.625427738 
-545.036713112 
-507.447937797 
-469.859098802 
-432.270204239 
-394.681440919 
-357.093767377 
-319.510721023 
-281.943406404 
-244.421756107 
-207.018066469 
-169.861731054 
-133.122744624 
-96.297099 
-58.2082207293 
-18.5907549506 
267.268883054 
259.412177519 
248.401825851 
237.612825221 
227.163331265 
218.091147759 
209.506519114 
201.174857835 
192.927448237 
184.709207799 
176.498642111 
168.289693219 
160.080791983 
151.87172184 
143.662529327 
135.453276356 
127.243998024 
119.034709373 
110.8254141 
102.616108507 
94.4067822407 
86.1974221309 
77.9880473732 
69.778839453 
61.5706910892 
53.3663709732 
45.1755864719 
37.017355725 
28.9574547476 
21.0243779384 
13.1848939271 
5.32327623928 
1589.68819868 
1625.57819126 
1611.57304025 
1558.82027269 
1496.44266777 
1436.22575116 
1379.14036122 
1323.8424776 
1269.36681959 
1215.2099606 
1161.16268137 
1107.14777283 
1053.1405316 
999.134250056 
945.127620526 
891.120628954 
837.113434035 
783.106138406 
729.098777526 
675.091342224 
621.083820945 
567.07635605 
513.069819608 
459.067681469 
405.081163276 
351.142279114 
297.328720632 
243.803292876 
190.773357592 
138.071069945 
84.4846923821 
29.4116491455 
2960.39264867 
3041.35757288 
2979.13807891 
2867.13425262 
2755.15771997 
2649.02356751 
2546.47969323 
2445.6655541 
2345.5308984 
2245.63512232 
2145.81132332 
2046.00531058 
1946.20190475 
1846.39795486 
1746.5932953 
1646.78822624 
1546.98296973 
1447.17763142 
1347.37224042 
1247.56677573 
1147.76118247 
1047.95544062 
948.149906448 
848.346573282 
748.553159295 
648.794005173 
549.138424847 
449.751254664 
350.986083891 
253.293940636 
155.607261313 
54.3787307425 
4546.11594855 
4480.97684681 
4301.96989853 
4145.37424008 
4000.63579096 
3856.6382237 
3712.1034352 
3566.99103033 
3421.58489434 
3276.0500464 
3130.46750947 
2984.86925804 
2839.26663554 
2693.66309439 
2548.05950333 
2402.45599836 
2256.8525598 
2111.24915876 
1965.64578216 
1820.04242774 
1674.43908043 
1528.83563069 
1383.23160101 
1237.62536637 
1092.01205653 
946.379360305 
800.698587833 
654.928377135 
509.036482888 
363.501978832 
219.959236838 
76.8209554547 
</DataArray>
<DataArray type="Float64" Name="Cell_S_yy" NumberOfComponents="1" format="ascii">
-1138.79142837 
-118.574341252 
-142.048513193 
-128.774994872 
-130.58122752 
-127.950832356 
-124.250691963 
-119.77293067 
-115.021352112 
-110.165004107 
-105.277375228 
-100.381488347 
-95.484237227 
-90.5871104523 
-85.6902512482 
-80.7935560455 
-75.8969383571 
-71.0003552313 
-66.1037943886 
-61.2072636952 
-56.3107826318 
-51.4143501264 
-46.5177833336 
-41.620200999 
-36.7180932019 
-31.801721429 
-26.8378610652 
-21.7780265172 
-16.3199463741 
-10.9492592346 
-0.81820609521 
-41.6003193833 
-889.884339974 
-392.105585063 
-157.362114326 
-131.534911423 
-125.689977756 
-125.149571311 
-122.842217109 
-119.213862706 
-114.821297146 
-110.103568893 
-105.261678407 
-100.378914726 
-95.4845331745 
-90.5876475848 
-85.690576357 
-80.7937084042 
-75.8970059727 
-71.0003988187 
-66.1038537713 
-61.207363153 
-56.310882991 
-51.4141148501 
-46.5158078193 
-41.6116738808 
-36.6893722266 
-31.7160356474 
-26.6242737525 
-21.2698266633 
-15.6661494485 
-9.70746444684 
-11.688167983 
-31.5075323546 
-616.061953837 
-346.003078391 
-193.729904858 
-137.371540963 
-127.740021697 
-125.06672708 
-122.648715266 
-119.067418752 
-114.752627729 
-110.075150884 
-105.251610062 
-100.375764733 
-95.483722595 
-90.5875080949 
-85.6905882836 
-80.7937354551 
-75.8970246402 
-71.0004110622 