<?xml version="1.0"?>
<VTKFile type="UnstructuredGrid" version="0.1" byte_order="LittleEndian" compressor="vtkZLibDataCompressor">
<UnstructuredGrid>
<Piece NumberOfPoints="126" NumberOfCells="100">
<PointData>
<DataArray type="Float64" Name="displacement" NumberOfComponents="3" format="ascii" >
0.0 0.0  0.
0.0 0.0  0.
0.0 0.0  0.
0.0 0.0  0.
0.0 0.0  0.
0.0 0.0  0.
0.06055974639624946 -0.05874525737795293  0.
0.03011712208632809 -0.024334558308442257  0.
0.010911427408730585 -0.009348803748519173  0.
-0.0078092024701550454 -0.007153390207152223  0.
-0.027356742125137015 -0.01831406681913024  0.
-0.059251857297619503 -0.050969310807227226  0.
0.12324012735281958 -0.10759401269433497  0.
0.0702495038146037 -0.07544267535531927  0.
0.02457730062756581 -0.056232628077697265  0.
-0.01819319131393633 -0.052693983280800785  0.
-0.0650160435222996 -0.06559148501417564  0.
-0.12118142686024905 -0.09382779252550692  0.
0.18115160807250888 -0.1812597492007143  0.
0.10653035831774403 -0.14885094961170986  0.
0.03726414879209477 -0.12967879146338793  0.
-0.03047338369179262 -0.12481287816096662  0.
-0.10171392537240272 -0.13492133864759417  0.
-0.18126115707690324 -0.1602700189260963  0.
0.2344085182143546 -0.2785599550711748  0.
0.13825070838134412 -0.2460333602154448  0.
0.0467553542030751 -0.22623231923200254  0.
-0.04383919985420782 -0.219771445068821  0.
-0.13799112445582823 -0.22712312809941684  0.
-0.24026006316997592 -0.24859303252465137  0.
0.28195321743102153 -0.39855493063539127  0.
0.16522023175279674 -0.36549564718880667  0.
0.05286619565599935 -0.3446382767301529  0.
-0.05894645662097554 -0.33626525941079777  0.
-0.1744416287565289 -0.3406439626241871  0.
-0.29809943319279747 -0.357991154082047  0.
0.3233643805869664 -0.539586432184421  0.
0.18726499090010554 -0.5057382726789724  0.
0.05539291869350631 -0.4834975213858169  0.
-0.07613397540382481 -0.47293790860792645  0.
-0.21146275320121768 -0.4741326015797956  0.
-0.35499969742450926 -0.4871252826624922  0.
0.35839963997440155 -0.7000138855542026  0.
0.20423004121180852 -0.6651958408226121  0.
0.054193801423229326 -0.641359854381969  0.
-0.09560653566742021 -0.6284102532720109  0.
-0.24927787194822817 -0.6262451119144107  0.
-0.411161293728963 -0.6347358146159904  0.
0.3869451887226178 -0.878209471900694  0.
0.21602493207360648 -0.8423164811380445  0.
0.04918505925819146 -0.8167588514229723  0.
-0.11746920240504577 -0.801292972013704  0.
-0.2880124333237721 -0.795660427060819  0.
-0.4667265166500427 -0.7995736447259327  0.
0.408977642199745 -1.0725743598252075  0.
0.2226306404356892 -1.035569318033744  0.
0.04034792514429906 -1.0082375417130658  0.
-0.14175353882949077 -0.9902021095197345  0.
-0.32771658051717306 -0.9810646303831196  0.
-0.5217677961748609 -0.980394338333409  0.
0.42454816324454314 -1.2815400216508392  0.
0.22409570569085985 -1.2434483378597554  0.
0.027726502595675277 -1.214355353659483  0.
-0.1684268044139112 -1.1937633020623228  0.
-0.36837502746210093 -1.1811485367695007  0.
-0.5762917645711249 -1.1759524915385922  0.
0.4337715709405912 -1.5035686196341362  0.
0.22052976752491146 -1.4644727247839033  0.
0.011423492917942108 -1.4336899969724761  0.
-0.19739781477755822 -1.4106134260784862  0.
-0.4099132318752161 -1.3946076907938698  0.
-0.6302451265380274 -1.3850012789138213  0.
0.43681786137528544 -1.7371524642859417  0.
0.21209682887164594 -1.6971863748142342  0.
-0.0084051041917202 -1.6648376264309654  0.
-0.22852219041328234 -1.6394011721293542  0.
-0.4522029160874722 -1.6201429128122924  0.
-0.6835203532306867 -1.606292774957413  0.
0.4339047955069157 -1.9808131168261676  0.
0.1990086530920299 -1.940157047826167  0.
-0.03155570530459377 -1.9064124156110465  0.
-0.26160766860683177 -1.87878703151217  0.
-0.4950673998343947 -1.8564604390010284  0.
-0.7359609730468335 -1.838578117040998  0.
0.42529113332853546 -2.233100199563332  0.
0.18151827222177944 -2.1919752511866335  0.
-0.05778311546988615 -2.1570458879976417  0.
-0.29641934841710926 -2.1274429763951237  0.
-0.5382867042654795 -2.102271518158684  0.
-0.7873667170620929 -2.0806071230793095  0.
0.41127067694926167 -2.492589769850726  0.
0.15991321325142951 -2.4512526776835015  0.
-0.08680711304421983 -2.415386425829886  0.
-0.33268445813960645 -2.3840525209106262  0.
-0.5816019842150443 -2.3562915920088896  0.
-0.8374990088319931 -2.331127020979766  0.
0.39216878118598486 -2.7578825043494994  0.
0.1345069310884449 -2.7166193997812167  0.
-0.11832151458053702 -2.6801001988147153  0.
-0.3700955444154712 -2.6473133784597658  0.
-0.624717640603974 -2.617239428655452  0.
-0.8860887049726833 -2.5888798046498214  0.
0.3683465636374516 -3.0276022846731925  0.
0.10562268098188002 -2.9867200983568667  0.
-0.15200937625460575 -2.949875546647345  0.
-0.4083102096685302 -2.915946623402998  0.
-0.6672966093826324 -2.8838401854743885  0.
-0.9328512953093707 -2.8525966094306057  0.
0.34022639166720314 -3.300437365700882  0.
0.0735651691559834 -3.2602093760638615  0.
-0.1875694077929482 -3.2234277207546347  0.
-0.44694217769655614 -3.1887126215819817  0.
-0.7089460991485318 -3.154836295044527  0.
-0.9775430514909341 -3.1210202504427844  0.
0.3082733890416557 -3.575271357659144  0.
0.03859844483853166 -3.5358992113915213  0.
-0.22460423232691554 -3.499369505458767  0.
-0.48560407377219506 -3.4642387558910364  0.
-0.7492923941664152 -3.4291311319773277  0.
-1.0200289882268037 -3.393035364138678  0.
0.2724412933323576 -3.8532489726533954  0.
0.0018796839162723469 -3.8132412372722184  0.
-0.2618291629901551 -3.7751720518649505  0.
-0.5240927414423115 -3.7397270658077195  0.
-0.7890440525781721 -3.705735367376754  0.
-1.0608924974673026 -3.6697341809559454  0.
</DataArray>
<DataArray type="Float64" Name="Nodal_sigma_xx" NumberOfComponents="1" format="ascii" >
8.483261178185106 
6.284573959773894 
2.1577770105151926 
-1.864735950045069 
-6.9042439185538536 
-9.849348657349866 
8.069212857824798 
6.157106032137535 
2.24557203293745 
-1.9635991916875188 
-6.798597705038422 
-9.423852167277182 
7.499998615772869 
5.859139818642119 
2.2356226885905865 
-1.9633698189920965 
-6.472051386757823 
-8.764398779861649 
7.158173614843886 
5.5314025543467 
2.069377669889789 
-1.7997041699480696 
-6.045532547622828 
-8.257532909419453 
6.781573175375547 
5.22062818696674 
1.937961226327319 
-1.676423672567935 
-5.6407348489717455 
-7.712383098710918 
6.396881163207832 
4.914011813693561 
1.8158627324735304 
-1.5611088356832883 
-5.246655117490087 
-7.170509562845826 
6.004610586843482 
4.607182384742596 
1.6989184431869728 
-1.4478612588249884 
-4.8596520704817365 
-6.635498919581261 
5.607481180598543 
4.29884934981947 
1.5840844382561452 
-1.3344245968115538 
-4.477795647779093 
-6.108790744463184 
5.206542869761134 
3.9888588371195204 
1.470294545083548 
-1.2207983171767924 
-4.100450460767965 
-5.589890001493155 
4.8023209340038395 
3.6772534835550887 
1.3570746733128958 
-1.1072141133021702 
-3.72734156225652 
-5.078291584389246 
4.395020838503236 
3.364069216999445 
1.2442256437725614 
-0.9938331637503572 
-3.3583183382705903 
-4.573636656990996 
3.9846889776542938 
3.049304145624544 
1.131662813000767 
-0.8807248550529184 
-2.9932663459595252 
-4.075676669406475 
3.571288875935798 
2.732924591510547 
1.019347268520243 
-0.7679047563744223 
-2.632076140972967 
-3.5842085392418985 
3.154738946104883 
2.4148707859211074 
0.9072529947672403 
-0.6553572346340473 
-2.274630265489354 
-3.099042697913465 
2.7349337360021004 
2.0950516128455687 
0.795343947177558 
-0.5430302214684447 
-1.920792124365828 
-2.6200054011286884 
2.3117792155653167 
1.773306578527742 
0.6835184516850429 
-0.43077326330621707 
-1.570369566546454 
-2.146989644600555 
1.8853530368964098 
1.4492517129767863 
0.5713756049083322 
-0.3180881357685732 
-1.2229650950814877 
-1.680153097866327 
1.456264351409558 
1.1218327081556316 
0.4575794409219001 
-0.203505960330698 
-0.8775371801007871 
-1.2203046225980834 
1.027400642590327 
0.7883833956721025 
0.33805290903149326 
-0.08284656864516142 
-0.5314779276323794 
-0.7705230486653272 
0.5937723319221851 
0.4499189248005721 
0.21669504289307254 
0.040582462612912915 
-0.18582539473271859 
-0.32549114658407696 
0.37392121272335477 
0.2801592784391618 
0.15729901656324474 
0.10138826089547356 
-0.013821960872679243 
-0.10221975456478488 
</DataArray>
<DataArray type="Float64" Name="Nodal_sigma_yy" NumberOfComponents="1" format="ascii" >
2.86291022192378 
2.135174560349354 
0.6924082645589663 
-0.7329611134072712 
-2.1953776647989405 
-2.947455472440334 
1.3138198998598745 
1.0394285029385888 
0.3193384660462487 
-0.556842937980749 
-1.2259499588021714 
-1.4645742155676504 
-0.16126293918779183 
-0.12374493478834986 
-0.17326001828034682 
-0.3104581641198535 
-0.20462400046002188 
-0.04862477885212252 
-0.09935915765671695 
-0.18562263635587148 
-0.2778776524770169 
-0.24289788603154333 
-0.15136407245761052 
-0.10080156275114208 
-0.10090559243472304 
-0.16602125783296245 
-0.2469779465831408 
-0.23515941799347093 
-0.14693818342375933 
-0.08637650079565654 
-0.0842318760761207 
-0.14114465358126693 
-0.21535567685320817 
-0.21157325473393437 
-0.1362149037337189 
-0.08193722061957222 
-0.07266985193881682 
-0.1211696302724809 
-0.18587186507673348 
-0.1850785447992916 
-0.12011602551935217 
-0.07214928298744318 
-0.062425029393025605 
-0.10395204213648399 
-0.1596082184548838 
-0.15937768520585943 
-0.10365544397033939 
-0.06229289955878517 
-0.05327222849227198 
-0.08862689467203815 
-0.136034243230954 
-0.13584379606755745 
-0.08831285448840781 
-0.05302504245180442 
-0.04496697694598545 
-0.07481225882095624 
-0.11481839800668858 
-0.11457222119323981 
-0.07437208360974584 
-0.044578980150462175 
-0.037442700532294704 
-0.06234509771961973 
-0.09572114665803849 
-0.09542472847476782 
-0.06180132735120398 
-0.03694799616200457 
-0.03066563068571343 
-0.05114342584151247 
-0.07859842315611215 
-0.07827233084973806 
-0.05053757953708866 
-0.030106122689614018 
-0.024617588422459785 
-0.04116319227607624 
-0.06337028775384575 
-0.0630387841913321 
-0.04053992069795271 
-0.024034052391240027 
-0.01928253313141523 
-0.0323722283811592 
-0.04999170047319436 
-0.04969567655492725 
-0.031798310496676134 
-0.01872674519898332 
-0.014621614694733852 
-0.024708629649283588 
-0.03841613874389331 
-0.038274435103848495 
-0.024363528821203448 
-0.014214820318663217 
-0.01050765995084368 
-0.01795899629231116 
-0.028503014096015147 
-0.02894711010120581 
-0.01846410295273272 
-0.010629681261305472 
-0.006438234792997863 
-0.01143236761060481 
-0.01982860244287145 
-0.02219016717726468 
-0.014815106175100463 
-0.008480582453202705 
-0.002237394571529378 
-0.004139157222088633 
-0.01148863885514712 
-0.01887351458339651 
-0.014356070190666636 
-0.007901469052186604 
0.0014390652766929591 
-0.0019269314164137952 
-0.008856147650485768 
-0.012999216225382984 
-0.010737173552123095 
-0.007895281844931209 
-0.08352567550079164 
-0.09609039103835154 
-0.05770524543587317 
0.045327900610179064 
0.08813158761257622 
0.07885198970895937 
-0.17009091958952158 
-0.18851126133652063 
-0.10495247524212795 
0.09844618846398107 
0.18271202950084253 
0.16555833467298678 
</DataArray>
<DataArray type="Float64" Name="Nodal_sigma_xy" NumberOfComponents="1" format="ascii" >
-0.9422167473440501 
-0.6140075856146778 
-0.1158485568298829 
-0.057623562655194485 
-0.6503805279280445 
-1.1314126203201602 
-0.5654773861709871 
-0.5151211651356897 
-0.39595828488410156 
-0.3866841901027399 
-0.5644043879178683 
-0.6825920212980674 
-0.18591125949228401 
-0.39907310002527296 
-0.6830609231410603 
-0.7279033366387634 
-0.47507191624041223 
-0.24822406492715626 
-0.19894499346499311 
-0.38801357697418726 
-0.6765389948536993 
-0.7255893008637506 
-0.4768932656904881 
-0.2786037588774921 
-0.2222153664950358 
-0.3977787674966412 
-0.6586457297603918 
-0.703936678648761 
-0.48121305368254647 
-0.2985020410901078 
-0.23267438942060273 
-0.40360304142861936 
-0.6531473112283096 
-0.6930826698555289 
-0.4779356162513041 
-0.30146882181153345 
-0.23717618700702103 
-0.40696422328143345 
-0.6516541787938239 
-0.6869877887420235 
-0.4729681123219796 
-0.29851674519171445 
-0.23949715877882186 
-0.40888534204174826 
-0.6509241332391261 
-0.6825613318775854 
-0.4680985496209432 
-0.2946491766602934 
-0.24101350677678274 
-0.41010166347421007 
-0.6501395788487567 
-0.678716123683829 
-0.46364998406100877 
-0.2909570582802352 
-0.24223307602455996 
-0.4110044587536078 
-0.6492523371279983 
-0.6751259689538132 
-0.4595207221155266 
-0.2875183390967678 
-0.24336126254980067 
-0.4118035935588191 
-0.6483454897122874 
-0.6716948595113503 
-0.4555994921496733 
-0.28425432013338336 
-0.24448715346614303 
-0.4126071695913096 
-0.6474949961327843 
-0.6684051470722367 
-0.4518303711036822 
-0.2811132546119832 
-0.2456510753120162 
-0.4134718954312506 
-0.6467562591641786 
-0.6652690284099037 
-0.4481968033651502 
-0.2780753526883653 
-0.2468690321572154 
-0.4144299830450457 
-0.646178594270274 
-0.6623143948562622 
-0.4446949517120487 
-0.275127368319245 
-0.24812154989502438 
-0.4154955774814939 
-0.6458394312066488 
-0.6596003963581845 
-0.441304547094455 
-0.27221755881787524 
-0.24925194256434027 
-0.4166328518390549 
-0.6459517527899783 
-0.6573138194028769 
-0.4379321384828214 
-0.2691263826260764 
-0.2495809359990015 
-0.41763315186797695 
-0.6471926603885932 
-0.6560940083043476 
-0.434275105577288 
-0.26506214758611496 
-0.24705943526195812 
-0.4178299569651741 
-0.6513826467538242 
-0.6577153682533722 
-0.4295639683952481 
-0.25786201512300994 
-0.23975724174765317 
-0.4171974766484632 
-0.6595454810658471 
-0.6630668694783067 
-0.42375096006424906 
-0.24582143175430554 
-0.26361558113388894 
-0.426987236817666 
-0.6420899035616284 
-0.642438101114793 
-0.42843320322666983 
-0.2658111188455674 
-0.2924267789937318 
-0.4371830810384043 
-0.6196298886903897 
-0.6182988424997843 
-0.43617387199163105 
-0.2930704532813961 
</DataArray>
</PointData>
<CellData>
</CellData>
<Points>
<DataArray type="Float64" Name="Points" NumberOfComponents="3" format="ascii">
0.0 5.0 0.0
0.0 4.0 0.0
0.0 3.0 0.0
0.0 2.0 0.0
0.0 1.0 0.0
0.0 0.0 0.0
1.0 5.0 0.0
1.0 4.0 0.0
1.0 3.0 0.0
1.0 2.0 0.0
1.0 1.0 0.0
1.0 0.0 0.0
2.0 5.0 0.0
2.0 4.0 0.0
2.0 3.0 0.0
2.0 2.0 0.0
2.0 1.0 0.0
2.0 0.0 0.0
3.0 5.0 0.0
3.0 4.0 0.0
3.0 3.0 0.0
3.0 2.0 0.0
3.0 1.0 0.0
3.0 0.0 0.0
4.0 5.0 0.0
4.0 4.0 0.0
4.0 3.0 0.0
4.0 2.0 0.0
4.0 1.0 0.0
4.0 0.0 0.0
5.0 5.0 0.0
5.0 4.0 0.0
5.0 3.0 0.0
5.0 2.0 0.0
5.0 1.0 0.0
5.0 0.0 0.0
6.0 5.0 0.0
6.0 4.0 0.0
6.0 3.0 0.0
6.0 2.0 0.0
6.0 1.0 0.0
6.0 0.0 0.0
7.0 5.0 0.0
7.0 4.0 0.0
7.0 3.0 0.0
7.0 2.0 0.0
7.0 1.0 0.0
7.0 0.0 0.0
8.0 5.0 0.0
8.0 4.0 0.0
8.0 3.0 0.0
8.0 2.0 0.0
8.0 1.0 0.0
8.0 0.0 0.0
9.0 5.0 0.0
9.0 4.0 0.0
9.0 3.0 0.0
9.0 2.0 0.0
9.0 1.0 0.0
9.0 0.0 0.0
10.0 5.0 0.0
10.0 4.0 0.0
10.0 3.0 0.0
10.0 2.0 0.0
10.0 1.0 0.0
10.0 0.0 0.0
11.0 5.0 0.0
11.0 4.0 0.0
11.0 3.0 0.0
11.0 2.0 0.0
11.0 1.0 0.0
11.0 0.0 0.0
12.0 5.0 0.0
12.0 4.0 0.0
12.0 3.0 0.0
12.0 2.0 0.0
12.0 1.0 0.0
12.0 0.0 0.0
13.0 5.0 0.0
13.0 4.0 0.0
13.0 3.0 0.0
13.0 2.0 0.0
13.0 1.0 0.0
13.0 0.0 0.0
14.0 5.0 0.0
14.0 4.0 0.0
14.0 3.0 0.0
14.0 2.0 0.0
14.0 1.0 0.0
14.0 0.0 0.0
15.0 5.0 0.0
15.0 4.0 0.0
15.0 3.0 0.0
15.0 2.0 0.0
15.0 1.0 0.0
15.0 0.0 0.0
16.0 5.0 0.0
16.0 4.0 0.0
16.0 3.0 0.0
16.0 2.0 0.0
16.0 1.0 0.0
16.0 0.0 0.0
17.0 5.0 0.0
17.0 4.0 0.0
17.0 3.0 0.0
17.0 2.0 0.0
17.0 1.0 0.0
17.0 0.0 0.0
18.0 5.0 0.0
18.0 4.0 0.0
18.0 3.0 0.0
18.0 2.0 0.0
18.0 1.0 0.0
18.0 0.0 0.0
19.0 5.0 0.0
19.0 4.0 0.0
19.0 3.0 0.0
19.0 2.0 0.0
19.0 1.0 0.0
19.0 0.0 0.0
20.0 5.0 0.0
20.0 4.0 0.0
20.0 3.0 0.0
20.0 2.0 0.0
20.0 1.0 0.0
20.0 0.0 0.0
</DataArray>
</Points>
<Cells>
<DataArray type="Int64" Name="connectivity" format="ascii">
0 1 7 6 
1 2 8 7 
2 3 9 8 
3 4 10 9 
4 5 11 10 
6 7 13 12 
7 8 14 13 
8 9 15 14 
9 10 16 15 
10 11 17 16 
12 13 19 18 
13 14 20 19 
14 15 21 20 
15 16 22 21 
16 17 23 22 
18 19 25 24 
19 20 26 25 
20 21 27 26 
21 22 28 27 
22 23 29 28 
24 25 31 30 
25 26 32 31 
26 27 33 32 
27 28 34 33 
28 29 35 34 
30 31 37 36 
31 32 38 37 
32 33 39 38 
33 34 40 39 
34 35 41 40 
36 37 43 42 
37 38 44 43 
38 39 45 44 
39 40 46 45 
40 41 47 46 
42 43 49 48 
43 44 50 49 
44 45 51 50 
45 46 52 51 
46 47 53 52 
48 49 55 54 
49 50 56 55 
50 51 57 56 
51 52 58 57 
52 53 59 58 
54 55 61 60 
55 56 62 61 
56 57 63 62 
57 58 64 63 
58 59 65 64 
60 61 67 66 
61 62 68 67 
62 63 69 68 
63 64 70 69 
64 65 71 70 
66 67 73 72 
67 68 74 73 
68 69 75 74 
69 70 76 75 
70 71 77 76 
72 73 79 78 
73 74 80 79 
74 75 81 80 
75 76 82 81 
76 77 83 82 
78 79 85 84 
79 80 86 85 
80 81 87 86 
81 82 88 87 
82 83 89 88 
84 85 91 90 
85 86 92 91 
86 87 93 92 
87 88 94 93 
88 89 95 94 
90 91 97 96 
91 92 98 97 
92 93 99 98 
93 94 100 99 
94 95 101 100 
96 97 103 102 
97 98 104 103 
98 99 105 104 
99 100 106 105 
100 101 107 106 
102 103 109 108 
103 104 110 109 
104 105 111 110 
105 106 112 111 
106 107 113 112 
108 109 115 114 
109 110 116 115 
110 111 117 116 
111 112 118 117 
112 113 119 118 
114 115 121 120 
115 116 122 121 
116 117 123 122 
117 118 124 123 
118 119 125 124 
</DataArray>
<DataArray type="Int64" Name="offsets" format="ascii">
4
8
12
16
20
24
28
32
36
40
44
48
52
56
60
64
68
72
76
80
84
88
92
96
100
104
108
112
116
120
124
128
132
136
140
144
148
152
156
160
164
168
172
176
180
184
188
192
196
200
204
208
212
216
220
224
228
232
236
240
244
248
252
256
260
264
268
272
276
280
284
288
292
296
300
304
308
312
316
320
324
328
332
336
340
344
348
352
356
360
364
368
372
376
380
384
388
392
396
400
</DataArray>
<DataArray type="UInt8" Name="types" format="ascii" RangeMin="9" RangeMax="9">
9
9
9
9
9
9
9
9
9
9
9
9
9
9
9
9
9
9
9
9
9
9
9
9
9
9
9
9
9
9
9
9
9
9
9
9
9
9
9
9
9
9
9
9
9
9
9
9
9
9
9
9
9
9
9
9
9
9
9
9
9
9
9
9
9
9
9
9
9
9
9
9
9
9
9
9
9
9
9
9
9
9
9
9
9
9
9
9
9
9
9
9
9
9
9
9
9
9
9
9
</DataArray>
</Cells>
</Piece>
</UnstructuredGrid>
</VTKFile>
