<?xml version="1.0"?>
<VTKFile type="UnstructuredGrid" version="0.1" byte_order="LittleEndian" compressor="vtkZLibDataCompressor">
<UnstructuredGrid>
<Piece NumberOfPoints="126" NumberOfCells="100">
<PointData>
<DataArray type="Float64" Name="displacement" NumberOfComponents="3" format="ascii" >
0.0 0.0  0.
0.0 0.0  0.
0.0 0.0  0.
0.0 0.0  0.
0.0 0.0  0.
0.0 0.0  0.
0.03057585088553834 -0.028781684567470562  0.
0.014963207960548746 -0.011508342827301532  0.
0.005160467153686246 -0.004347922340842968  0.
-0.004360440556224974 -0.0037816312463404378  0.
-0.01425228134733481 -0.009956668737352715  0.
-0.030237010929243247 -0.026780102799513556  0.
0.06232539530753157 -0.052728569413731906  0.
0.035060240433480085 -0.03684516220135761  0.
0.011703270801733076 -0.02783790909765325  0.
-0.010053570716041208 -0.026924210551413724  0.
-0.03370811245975385 -0.03430363054049749  0.
-0.061789527232282905 -0.04918262059127068  0.
0.09205872304593364 -0.08910940183490804  0.
0.053581358311018526 -0.07345714800801079  0.
0.01811418389062546 -0.06480238617657857  0.
-0.016350236223039053 -0.06354511167145253  0.
-0.05232783557717247 -0.06986070659506426  0.
-0.09207474345201318 -0.08369914546210518  0.
0.1199257735492666 -0.13728847663840302  0.
0.0703270053383325 -0.12204314915705827  0.
0.023446701591816055 -0.11348000759786905  0.
-0.022667056680837374 -0.11180981909962476  0.
-0.07023491378915235 -0.11715804808048295  0.
-0.12141217529956465 -0.12955891615568535  0.
0.14551705729994474 -0.1968382816471653  0.
0.08530372959058538 -0.1818721539260171  0.
0.027712050144117137 -0.1732623121044338  0.
-0.02923480392661274 -0.17109685344309422  0.
-0.08764076282324681 -0.175448689877503  0.
-0.14964693608000754 -0.18636719443875066  0.
0.16869722597936912 -0.2669876429967031  0.
0.09849518784781496 -0.2522336086737407  0.
0.03087369728047301 -0.24347784925155655  0.
-0.03616092023056618 -0.24074549141747986  0.
-0.10468016374658563 -0.24405936377046175  0.
-0.17681239818239824 -0.25343351908659073  0.
0.18939203445075017 -0.34697877644519826  0.
0.10986658609748746 -0.3323888652023384  0.
0.03290053324145791 -0.3234284850827604  0.
-0.04350829102945038 -0.3200756885173908  0.
-0.1214202779704218 -0.3223078285983946  0.
-0.20295237086981718 -0.3300973329005973  0.
0.20756587454902758 -0.4360556230638568  0.
0.11939293868229481 -0.42160259632543684  0.
0.03377017899787864 -0.41240355494647635  0.
-0.051307979485963065 -0.4083965515541847  0.
-0.13789633255393818 -0.40951798236537323  0.
-0.22810141143768614 -0.4156999324458081  0.
0.22320706132380935 -0.533468635001886  0.
0.12706575813920795 -0.5191431665948674  0.
0.0334755000176571 -0.5096913107772733  0.
-0.059570321598391485 -0.5050151828540574  0.
-0.15412201058937158 -0.5050142534375471  0.
-0.25227655134879795 -0.5095835333495328  0.
0.23632323934882338 -0.6384742157537391  0.
0.13289363526382192 -0.6242834728682315  0.
0.032025338417855716 -0.6145818828154445  0.
-0.06828830152101531 -0.6092389242611013  0.
-0.17009328340952873 -0.6081207630320268  0.
-0.27547753472143216 -0.6110888252245877  0.
0.24693866401427597 -0.7503346826025312  0.
0.13690108952071003 -0.7363009137126917  0.
0.029443890160380896 -0.7263680703870541  0.
-0.07743930905859107 -0.7203760642942769  0.
-0.18579027950290142 -0.7181611367797239  0.
-0.29768817587535173 -0.7195546046416864  0.
0.25509222451444236 -0.8683181404659042  0.
0.13912707400557905 -0.8544772822052367  0.
0.02576953193237694 -0.8443454730758817  0.
-0.0869865052256271 -0.8377360511959344  0.
-0.20117876627330317 -0.8344585917481366  0.
-0.31887785339384656 -0.8343177509985461  0.
0.2608357222777121 -0.9916983464030553  0.
0.13962341638259904 -0.978098627041691  0.
0.02105344178084774 -0.9678124712708635  0.
-0.09688016111558895 -0.9606295562801591  0.
-0.21621154382897856 -0.9563359808637161  0.
-0.3390029405860319 -0.9547132408796087  0.
0.26423230208926746 -1.1197545282093693  0.
0.13845320969916886 -1.1064550824942165  0.
0.01535806744860994 -1.096070217180271  0.
-0.10705895302852042 -1.0883685326833614  0.
-0.23082976055310023 -1.0831157361668144  0.
-0.35800824347455756 -1.080074050795495  0.
0.2653551747227256 -1.2517710458767843  0.
0.13568894734021983 -1.2388405927574901  0.
0.008755249909709351 -1.2284228725343427  0.
-0.11745100672702899 -1.2202665755521285  0.
-0.24496392969963238 -1.2141197175561085  0.
-0.3758286678654812 -1.2097307879874277  0.
0.26428753568637925 -1.387036921490329  0.
0.1314095761019223 -1.3745522415892468  0.
0.0013231110535615598 -1.3641788568776752  0.
-0.1279740009136638 -1.3556406073298206  0.
-0.25853378073837596 -1.3486689904246147  0.
-0.392392082487116 -1.3430108857889567  0.
0.26112641374763984 -1.5248452545416313  0.
0.12569354196154772 -1.512889808559422  0.
-0.006860007151671155 -1.5026544218676472  0.
-0.13853308601493597 -1.4938157015599491  0.
-0.2714443506375282 -1.4860851401749524  0.
-0.40762610257787685 -1.4792368066973411  0.
0.2560001425378098 -1.6645133431383972  0.
0.11860552991818156 -1.6531561209551995  0.
-0.0157272662525263 -1.6431783629036  0.
-0.1490138606816191 -1.6341327457118113  0.
-0.2835765314293364 -1.6256947221506532  0.
-0.421483750356814 -1.6177411761429072  0.
0.2490693598759116 -1.8054528062098787  0.
0.110197065237472 -1.794735589953351  0.
-0.025173357873195596 -1.7850187863286964  0.
-0.1593142158550943 -1.7758638417259494  0.
-0.2948134637834479 -1.7669068223968192  0.
-0.43396746745222164 -1.7579367190716337  0.
0.24038651268333575 -1.9482633958572513  0.
0.1010164902489917 -1.9372791663214237  0.
-0.03471713678344364 -1.9268019807293106  0.
-0.16952167444479668 -1.9175643105670874  0.
-0.3055848851155774 -1.9092563544266694  0.
-0.44529671113862845 -1.900410260624485  0.
</DataArray>
<DataArray type="Float64" Name="Nodal_sigma_xx" NumberOfComponents="1" format="ascii" >
4.464692361835428 
3.264771499276981 
1.062043883178493 
-0.9866712590740757 
-3.424348168952518 
-4.816116690118433 
4.25387125008246 
3.203748032233311 
1.1085897828367803 
-1.0360241451793164 
-3.3691292913479014 
-4.602655541047772 
3.9570575189096724 
3.051366251578392 
1.1055464100283625 
-1.0353988572799107 
-3.20974741788085 
-4.283279285392265 
3.768339739334211 
2.8756548379978164 
1.0217883266446124 
-0.9522402600663019 
-3.008921292590279 
-4.052755348420152 
3.561436330038373 
2.7090492087917277 
0.9563357435110516 
-0.8888536041405375 
-2.818365654709618 
-3.80301470166114 
3.351170105785492 
2.5450535931079648 
0.895454191304978 
-0.8297180789021459 
-2.6320356342174445 
-3.552663808451078 
3.1380649149434765 
2.3814384482612554 
0.8367731165884094 
-0.7720058332813964 
-2.447887195406369 
-3.3030284726521604 
2.9233531265784984 
2.2174371277575338 
0.7788099734681402 
-0.7144286027908059 
-2.2649952966447477 
-3.0550345697081727 
2.707408687044433 
2.052903416210528 
0.7211329988859961 
-0.6568239892219682 
-2.0830988151503256 
-2.8086817994613447 
2.49039981085972 
1.8878218820860329 
0.6635781064400614 
-0.5992071273828541 
-1.902110774531257 
-2.563895034729029 
2.272388427283946 
1.7221968294078955 
0.6060852490666476 
-0.5416095691909681 
-1.7219981424831947 
-2.3206118799830024 
2.0533920542239192 
1.556028760360633 
0.5486314720634792 
-0.48404736145128346 
-1.542743262329691 
-2.0787943241272036 
1.8334079724399754 
1.3893126871495007 
0.4912077370039062 
-0.4265249587101263 
-1.3643322866856282 
-1.838416583802217 
1.6124248205812672 
1.222038443484057 
0.43380840334298937 
-0.36903878997075173 
-1.1867503950223388 
-1.5994584698040424 
1.3904310448880142 
1.0541867861575194 
0.3764213009168733 
-0.31157177597795166 
-1.0099761421478919 
-1.3619086579331585 
1.1674345548960927 
0.8857094039903777 
0.3189979365845973 
-0.2540617889141896 
-0.8339616948595521 
-1.125788191806193 
0.9435496566976278 
0.7164492830934389 
0.26133053560091657 
-0.19627454341456 
-0.658554171861474 
-0.8912470951812449 
0.7191859736483948 
0.5459106238730976 
0.20272505398213478 
-0.13748016429207804 
-0.4832676132887348 
-0.6587600641268445 
0.495931898530786 
0.37277703180761945 
0.14107995141574292 
-0.07554949006492429 
-0.30680621527570695 
-0.4299757126745324 
0.2712675156891443 
0.19764734721904273 
0.07835731058663456 
-0.01228798524755966 
-0.12977875738787478 
-0.20229410185630226 
0.1576326399703603 
0.10996872002699916 
0.04761114529450921 
0.018827893244188394 
-0.04150777228501035 
-0.08775384055301708 
</DataArray>
<DataArray type="Float64" Name="Nodal_sigma_yy" NumberOfComponents="1" format="ascii" >
1.461552717530109 
1.089976393680172 
0.35627741402829644 
-0.3667151099704709 
-1.1054089864086785 
-1.4832329946500573 
0.6845508103895331 
0.549884898509807 
0.19137027102131132 
-0.25237260715785065 
-0.5977482889766145 
-0.7232298082249858 
-0.056154317737154014 
-0.02254252924958898 
-0.0279126230616693 
-0.09638293915979812 
-0.06181408079970389 
0.0022432113588737868 
-0.02615220557339861 
-0.05282508581777427 
-0.07627183906367696 
-0.057740289635176155 
-0.03389888489226473 
-0.025362902579381133 
-0.02827848559838865 
-0.045687152344557704 
-0.06543131506458849 
-0.058890134387883625 
-0.03502034777943277 
-0.020027237821548513 
-0.022299019099560426 
-0.037355770542552166 
-0.05626773218482297 
-0.0540666619418009 
-0.034337153386487636 
-0.020663925273475492 
-0.018993541099828003 
-0.031627619532951595 
-0.04830135645712346 
-0.0477885536483174 
-0.030887303381729774 
-0.01853851441499648 
-0.016243733453573377 
-0.027040756546238335 
-0.04147050923726622 
-0.04134659156077772 
-0.02687152537472043 
-0.016153106463514554 
-0.01385933595390565 
-0.023057528697836883 
-0.035391794882582296 
-0.03534873046684417 
-0.02299140788379941 
-0.013813223157306959 
-0.011706464371994983 
-0.01948379713845189 
-0.02992210809726206 
-0.02988702297508292 
-0.01942258431344135 
-0.01165420896633218 
-0.00975554034150914 
-0.016256036802260378 
-0.02498700901455327 
-0.024948162506420134 
-0.016184795605891682 
-0.00969075096503802 
-0.007995477913306799 
-0.013349763240313194 
-0.020549611638519105 
-0.02050756543173753 
-0.013271065112866777 
-0.007922174071977116 
-0.006421770130099744 
-0.010754016880920796 
-0.0165918536872296 
-0.01655129548507653 
-0.010675897134479154 
-0.006346647041522595 
-0.005029356056826275 
-0.008459024380813819 
-0.013103193155810164 
-0.013078652046123383 
-0.008403216706533987 
-0.004966822927640176 
-0.0037997953330209198 
-0.006435718418149894 
-0.010064681343198439 
-0.010111840695883015 
-0.006483852752782975 
-0.00380174529691793 
-0.002667336862410179 
-0.004573348633091694 
-0.007402610456071849 
-0.007739250301314747 
-0.005036657260980269 
-0.002920674427701532 
-0.0013722873691937665 
-0.002513596335415031 
-0.0048942234206968685 
-0.006203024319405341 
-0.0044298059279323405 
-0.0025871047568114397 
0.00017170417391392705 
0.0002466363860153273 
-0.0020801074460686476 
-0.005957948216837564 
-0.0051560040767518606 
-0.0028778952100826163 
0.001582482783301013 
0.000633816507221539 
-0.0018048659071925545 
-0.003997556811675644 
-0.0040110853653068474 
-0.003321939152789579 
-0.04236871799343489 
-0.048421864600069225 
-0.02813783054606308 
0.024835099023753245 
0.046283521900988334 
0.04109619586904757 
-0.08692712949262836 
-0.09625138217821713 
-0.05318850995912732 
0.05143660444718218 
0.0946824232714499 
0.08569025259408673 
</DataArray>
<DataArray type="Float64" Name="Nodal_sigma_xy" NumberOfComponents="1" format="ascii" >
-0.5017041787668557 
-0.3152715434881559 
-0.048109823095261774 
-0.032926416520116505 
-0.32437718882400934 
-0.5502822825888531 
-0.3004554154084465 
-0.26555113780440387 
-0.1959233783209966 
-0.19334926888097484 
-0.2779380354696359 
-0.3303774296189542 
-0.09941339466239511 
-0.208448795058865 
-0.3477501142971739 
-0.3591326505533273 
-0.22767443292068704 
-0.1150995978737323 
-0.10775017834400782 
-0.20409510070219078 
-0.3448202354954333 
-0.3573223072439766 
-0.226679412539539 
-0.12791465852161754 
-0.11942199330785527 
-0.20864010258815924 
-0.33551368029210704 
-0.3470860942057292 
-0.22990638834525387 
-0.1388097369948001 
-0.12424141375863108 
-0.21096460418939975 
-0.332584092480103 
-0.342815089551761 
-0.22997235936763027 
-0.14179492997177623 
-0.12605907449755518 
-0.21221390032855347 
-0.331954671155207 
-0.34103447539096404 
-0.2291507376870216 
-0.1417731407429773 
-0.12690747020145338 
-0.21294463022861665 
-0.33191309724962953 
-0.3400699218275044 
-0.2281937509639344 
-0.14109206251633905 
-0.1274491922071696 
-0.2134574017731663 
-0.33195743112142295 
-0.33934999583825537 
-0.227297221747411 
-0.14034370272199428 
-0.12789161940687138 
-0.2138792759168695 
-0.33199642694113657 
-0.33871198515735806 
-0.2264623979839281 
-0.13962674710854553 
-0.12830377717636215 
-0.21426894003100413 
-0.3320289738268426 
-0.3381087415181103 
-0.22566584495409112 
-0.13893805164000084 
-0.12871079197093127 
-0.21465321387803826 
-0.33206638535106303 
-0.33752753608235053 
-0.2248924602648227 
-0.13826698328192533 
-0.12912181469478073 
-0.21504427397999304 
-0.33211857695309144 
-0.3369672661937193 
-0.2241358727239909 
-0.1376076337015208 
-0.12953718652680807 
-0.21544691735079324 
-0.33219687301222367 
-0.3364339182733241 
-0.22339202048240947 
-0.13695330226783956 
-0.12993882656321165 
-0.215857525463301 
-0.33232893576278827 
-0.3359506793802286 
-0.22264892040220935 
-0.13627812920614768 
-0.13023433413882612 
-0.21624449726050823 
-0.3326127266744704 
-0.33560901713948044 
-0.22186059909214023 
-0.1354739568720701 
-0.13005568709072243 
-0.2164832165776345 
-0.3333856023621861 
-0.33573683053239045 
-0.22087861250061466 
-0.13414402259627403 
-0.12832892583008262 
-0.2162130085151683 
-0.3355749587768122 
-0.33724996038333277 
-0.21931628005622722 
-0.13118546569915937 
-0.12408756720342017 
-0.21541637273868672 
-0.33968745479912665 
-0.34062013087695076 
-0.21715179013254576 
-0.12569304983548996 
-0.13598055131395137 
-0.21993888114871007 
-0.3304569025073414 
-0.3305503154826607 
-0.22032378457277363 
-0.13656353221144 
-0.15066894022621893 
-0.22492993342251477 
-0.318729449383266 
-0.31837849454597955 
-0.22466536993442196 
-0.15084172292460618 
</DataArray>
</PointData>
<CellData>
</CellData>
<Points>
<DataArray type="Float64" Name="Points" NumberOfComponents="3" format="ascii">
0.0 5.0 0.0
0.0 4.0 0.0
0.0 3.0 0.0
0.0 2.0 0.0
0.0 1.0 0.0
0.0 0.0 0.0
1.0 5.0 0.0
1.0 4.0 0.0
1.0 3.0 0.0
1.0 2.0 0.0
1.0 1.0 0.0
1.0 0.0 0.0
2.0 5.0 0.0
2.0 4.0 0.0
2.0 3.0 0.0
2.0 2.0 0.0
2.0 1.0 0.0
2.0 0.0 0.0
3.0 5.0 0.0
3.0 4.0 0.0
3.0 3.0 0.0
3.0 2.0 0.0
3.0 1.0 0.0
3.0 0.0 0.0
4.0 5.0 0.0
4.0 4.0 0.0
4.0 3.0 0.0
4.0 2.0 0.0
4.0 1.0 0.0
4.0 0.0 0.0
5.0 5.0 0.0
5.0 4.0 0.0
5.0 3.0 0.0
5.0 2.0 0.0
5.0 1.0 0.0
5.0 0.0 0.0
6.0 5.0 0.0
6.0 4.0 0.0
6.0 3.0 0.0
6.0 2.0 0.0
6.0 1.0 0.0
6.0 0.0 0.0
7.0 5.0 0.0
7.0 4.0 0.0
7.0 3.0 0.0
7.0 2.0 0.0
7.0 1.0 0.0
7.0 0.0 0.0
8.0 5.0 0.0
8.0 4.0 0.0
8.0 3.0 0.0
8.0 2.0 0.0
8.0 1.0 0.0
8.0 0.0 0.0
9.0 5.0 0.0
9.0 4.0 0.0
9.0 3.0 0.0
9.0 2.0 0.0
9.0 1.0 0.0
9.0 0.0 0.0
10.0 5.0 0.0
10.0 4.0 0.0
10.0 3.0 0.0
10.0 2.0 0.0
10.0 1.0 0.0
10.0 0.0 0.0
11.0 5.0 0.0
11.0 4.0 0.0
11.0 3.0 0.0
11.0 2.0 0.0
11.0 1.0 0.0
11.0 0.0 0.0
12.0 5.0 0.0
12.0 4.0 0.0
12.0 3.0 0.0
12.0 2.0 0.0
12.0 1.0 0.0
12.0 0.0 0.0
13.0 5.0 0.0
13.0 4.0 0.0
13.0 3.0 0.0
13.0 2.0 0.0
13.0 1.0 0.0
13.0 0.0 0.0
14.0 5.0 0.0
14.0 4.0 0.0
14.0 3.0 0.0
14.0 2.0 0.0
14.0 1.0 0.0
14.0 0.0 0.0
15.0 5.0 0.0
15.0 4.0 0.0
15.0 3.0 0.0
15.0 2.0 0.0
15.0 1.0 0.0
15.0 0.0 0.0
16.0 5.0 0.0
16.0 4.0 0.0
16.0 3.0 0.0
16.0 2.0 0.0
16.0 1.0 0.0
16.0 0.0 0.0
17.0 5.0 0.0
17.0 4.0 0.0
17.0 3.0 0.0
17.0 2.0 0.0
17.0 1.0 0.0
17.0 0.0 0.0
18.0 5.0 0.0
18.0 4.0 0.0
18.0 3.0 0.0
18.0 2.0 0.0
18.0 1.0 0.0
18.0 0.0 0.0
19.0 5.0 0.0
19.0 4.0 0.0
19.0 3.0 0.0
19.0 2.0 0.0
19.0 1.0 0.0
19.0 0.0 0.0
20.0 5.0 0.0
20.0 4.0 0.0
20.0 3.0 0.0
20.0 2.0 0.0
20.0 1.0 0.0
20.0 0.0 0.0
</DataArray>
</Points>
<Cells>
<DataArray type="Int64" Name="connectivity" format="ascii">
0 1 7 6 
1 2 8 7 
2 3 9 8 
3 4 10 9 
4 5 11 10 
6 7 13 12 
7 8 14 13 
8 9 15 14 
9 10 16 15 
10 11 17 16 
12 13 19 18 
13 14 20 19 
14 15 21 20 
15 16 22 21 
16 17 23 22 
18 19 25 24 
19 20 26 25 
20 21 27 26 
21 22 28 27 
22 23 29 28 
24 25 31 30 
25 26 32 31 
26 27 33 32 
27 28 34 33 
28 29 35 34 
30 31 37 36 
31 32 38 37 
32 33 39 38 
33 34 40 39 
34 35 41 40 
36 37 43 42 
37 38 44 43 
38 39 45 44 
39 40 46 45 
40 41 47 46 
42 43 49 48 
43 44 50 49 
44 45 51 50 
45 46 52 51 
46 47 53 52 
48 49 55 54 
49 50 56 55 
50 51 57 56 
51 52 58 57 
52 53 59 58 
54 55 61 60 
55 56 62 61 
56 57 63 62 
57 58 64 63 
58 59 65 64 
60 61 67 66 
61 62 68 67 
62 63 69 68 
63 64 70 69 
64 65 71 70 
66 67 73 72 
67 68 74 73 
68 69 75 74 
69 70 76 75 
70 71 77 76 
72 73 79 78 
73 74 80 79 
74 75 81 80 
75 76 82 81 
76 77 83 82 
78 79 85 84 
79 80 86 85 
80 81 87 86 
81 82 88 87 
82 83 89 88 
84 85 91 90 
85 86 92 91 
86 87 93 92 
87 88 94 93 
88 89 95 94 
90 91 97 96 
91 92 98 97 
92 93 99 98 
93 94 100 99 
94 95 101 100 
96 97 103 102 
97 98 104 103 
98 99 105 104 
99 100 106 105 
100 101 107 106 
102 103 109 108 
103 104 110 109 
104 105 111 110 
105 106 112 111 
106 107 113 112 
108 109 115 114 
109 110 116 115 
110 111 117 116 
111 112 118 117 
112 113 119 118 
114 115 121 120 
115 116 122 121 
116 117 123 122 
117 118 124 123 
118 119 125 124 
</DataArray>
<DataArray type="Int64" Name="offsets" format="ascii">
4
8
12
16
20
24
28
32
36
40
44
48
52
56
60
64
68
72
76
80
84
88
92
96
100
104
108
112
116
120
124
128
132
136
140
144
148
152
156
160
164
168
172
176
180
184
188
192
196
200
204
208
212
216
220
224
228
232
236
240
244
248
252
256
260
264
268
272
276
280
284
288
292
296
300
304
308
312
316
320
324
328
332
336
340
344
348
352
356
360
364
368
372
376
380
384
388
392
396
400
</DataArray>
<DataArray type="UInt8" Name="types" format="ascii" RangeMin="9" RangeMax="9">
9
9
9
9
9
9
9
9
9
9
9
9
9
9
9
9
9
9
9
9
9
9
9
9
9
9
9
9
9
9
9
9
9
9
9
9
9
9
9
9
9
9
9
9
9
9
9
9
9
9
9
9
9
9
9
9
9
9
9
9
9
9
9
9
9
9
9
9
9
9
9
9
9
9
9
9
9
9
9
9
9
9
9
9
9
9
9
9
9
9
9
9
9
9
9
9
9
9
9
9
</DataArray>
</Cells>
</Piece>
</UnstructuredGrid>
</VTKFile>
