<?xml version="1.0"?>
<VTKFile type="UnstructuredGrid" version="0.1" byte_order="LittleEndian" compressor="vtkZLibDataCompressor">
<UnstructuredGrid>
<Piece NumberOfPoints="24" NumberOfCells="11">
<PointData>
<DataArray type="Float64" Name="displacement" NumberOfComponents="3" format="ascii" >
0.0 0.0  0.
7.641293622912607e-06 2.2646340569481278e-06  0.
1.6027654426441305e-05 1.9316556534491016e-06  0.
2.4302885053082812e-05 1.9765187835368445e-06  0.
3.2603833715863415e-05 1.998332043439312e-06  0.
4.138318359053962e-05 2.0561196300226763e-06  0.
5.255074039791454e-05 2.055985268939318e-06  0.
6.133055362040665e-05 1.9992856914780607e-06  0.
6.962943502852485e-05 1.9702055863732713e-06  0.
7.79187522157409e-05 1.9744895632132145e-06  0.
8.620947762511136e-05 1.973856532699512e-06  0.
9.449999999999995e-05 1.9739631775194656e-06  0.
0.0 0.0  0.
7.641293622912617e-06 -2.264634056948138e-06  0.
1.6027654426441326e-05 -1.9316556534491405e-06  0.
2.4302885053082833e-05 -1.976518783536923e-06  0.
3.260383371586343e-05 -1.998332043439423e-06  0.
4.138318359053963e-05 -2.0561196300228114e-06  0.
5.2550740397914545e-05 -2.0559852689394686e-06  0.
6.133055362040666e-05 -1.999285691478227e-06  0.
6.962943502852486e-05 -1.970205586373455e-06  0.
7.79187522157409e-05 -1.974489563213409e-06  0.
8.620947762511138e-05 -1.9738565326997247e-06  0.
9.449999999999995e-05 -1.973963177519686e-06  0.
</DataArray>
<DataArray type="Float64" Name="Nodal_sigma_xx" NumberOfComponents="1" format="ascii" >
0.00010122765685176991 
0.00010122765685176993 
0.00010122765685176995 
0.00010122765685176993 
0.0001031560782849129 
0.00010557598125957792 
0.00010557284349308282 
0.00010315294051841778 
0.00010122765685176994 
0.00010122765685176998 
0.0001012276568517699 
0.00010122765685176982 
0.00010122765685176991 
0.00010122765685176993 
0.00010122765685176995 
0.00010122765685176993 
0.0001031560782849129 
0.00010557598125957792 
0.00010557284349308282 
0.00010315294051841778 
0.00010122765685176994 
0.00010122765685176998 
0.0001012276568517699 
0.00010122765685176982 
</DataArray>
<DataArray type="Float64" Name="Nodal_sigma_yy" NumberOfComponents="1" format="ascii" >
1.849719297000982e-05 
7.883700368641031e-06 
-1.1467412799186977e-06 
6.995588173515314e-08 
-7.529237564363344e-07 
6.454213324778465e-07 
6.412907736725115e-07 
-7.276062431276918e-07 
-1.0125930219850064e-07 
1.492301614533742e-08 
-2.2448994179862837e-09 
6.473296684518211e-10 
1.849719297000982e-05 
7.883700368641031e-06 
-1.1467412799186977e-06 
6.995588173515314e-08 
-7.529237564363344e-07 
6.454213324778465e-07 
6.412907736725115e-07 
-7.276062431276918e-07 
-1.0125930219850064e-07 
1.492301614533742e-08 
-2.2448994179862837e-09 
6.473296684518211e-10 
</DataArray>
<DataArray type="Float64" Name="Nodal_sigma_xy" NumberOfComponents="1" format="ascii" >
-1.0587911840678754e-21 
-5.293955920339377e-22 
-2.036518668105554e-21 
-7.12781533836944e-21 
-7.208879038399636e-21 
-2.117608217529893e-21 
5.8233256629791725e-21 
9.894734487359317e-21 
4.071382974986002e-21 
-8.144575407561964e-21 
8.14452370877368e-21 
3.257819823267129e-20 
-1.0587911840678754e-21 
-5.293955920339377e-22 
-2.036518668105554e-21 
-7.12781533836944e-21 
-7.208879038399636e-21 
-2.117608217529893e-21 
5.8233256629791725e-21 
9.894734487359317e-21 
4.071382974986002e-21 
-8.144575407561964e-21 
8.14452370877368e-21 
3.257819823267129e-20 
</DataArray>
</PointData>
<CellData>
</CellData>
<Points>
<DataArray type="Float64" Name="Points" NumberOfComponents="3" format="ascii">
0.0 0.0 0.0
9.0 0.0 0.0
18.0 0.0 0.0
27.0 0.0 0.0
36.0 0.0 0.0
45.0 0.5 0.0
55.0 0.5 0.0
64.0 0.0 0.0
73.0 0.0 0.0
82.0 0.0 0.0
91.0 0.0 0.0
100.0 0.0 0.0
0.0 10.0 0.0
9.0 10.0 0.0
18.0 10.0 0.0
27.0 10.0 0.0
36.0 10.0 0.0
45.0 9.5 0.0
55.0 9.5 0.0
64.0 10.0 0.0
73.0 10.0 0.0
82.0 10.0 0.0
91.0 10.0 0.0
100.0 10.0 0.0
</DataArray>
</Points>
<Cells>
<DataArray type="Int64" Name="connectivity" format="ascii">
0 1 13 12 
1 2 14 13 
2 3 15 14 
3 4 16 15 
4 5 17 16 
5 6 18 17 
6 7 19 18 
7 8 20 19 
8 9 21 20 
9 10 22 21 
10 11 23 22 
</DataArray>
<DataArray type="Int64" Name="offsets" format="ascii">
4
8
12
16
20
24
28
32
36
40
44
</DataArray>
<DataArray type="UInt8" Name="types" format="ascii" RangeMin="9" RangeMax="9">
9
9
9
9
9
9
9
9
9
9
9
</DataArray>
</Cells>
</Piece>
</UnstructuredGrid>
</VTKFile>
