<?xml version="1.0"?>
<VTKFile type="UnstructuredGrid" version="0.1" byte_order="LittleEndian" compressor="vtkZLibDataCompressor">
<UnstructuredGrid>
<Piece NumberOfPoints="24" NumberOfCells="11">
<PointData>
<DataArray type="Float64" Name="displacement" NumberOfComponents="3" format="ascii" >
0.0 0.0  0.
-2.791736021047214e-115 -3.3072554567519554e-115  0.
-4.600019580134614e-115 -1.0500734351893499e-114  0.
-5.583472042094428e-115 -2.004974051479363e-114  0.
-5.900714771758884e-115 -3.045530204778779e-114  0.
-5.297953585396418e-115 -4.035327521331882e-114  0.
0.00014249999999999997 -3.8129139033968558e-06  0.
0.00014249999999999997 -3.812913903396866e-06  0.
0.00014249999999999997 -3.8129139033968685e-06  0.
0.00014249999999999997 -3.8129139033968647e-06  0.
0.0001425 -3.8129139033968583e-06  0.
0.0001425 -3.812913903396842e-06  0.
0.0 0.0  0.
2.6569078609398203e-115 -3.27553118378551e-115  0.
4.314501123436604e-115 -1.0500734351893499e-114  0.
5.171056493530635e-115 -1.9922843422927846e-114  0.
5.361402131329309e-115 -3.032840495592201e-114  0.
4.806227354416511e-115 -4.0480172305184605e-114  0.
0.0001425 -3.812913903396855e-06  0.
0.00014249999999999997 -3.8129139033968664e-06  0.
0.00014249999999999997 -3.8129139033968685e-06  0.
0.00014249999999999997 -3.812913903396865e-06  0.
0.0001425 -3.8129139033968583e-06  0.
0.0001425 -3.8129139033968414e-06  0.
</DataArray>
<DataArray type="Float64" Name="Nodal_sigma_xx" NumberOfComponents="1" format="ascii" >
-9.1681793134867e-116 
-9.761314758906347e-116 
-8.092062148225305e-116 
-3.999427574829747e-116 
1.132708756157597e-117 
1.1978614043831983e-116 
-5.471873290423973e-20 
-5.51005085715719e-20 
-7.635513346643332e-22 
2.8467738927401893e-19 
2.8582271627601543e-19 
1.5271026693286663e-21 
-9.1681793134867e-116 
-9.761314758906347e-116 
-8.092062148225305e-116 
-3.999427574829747e-116 
1.132708756157597e-117 
1.1978614043831983e-116 
-5.471873290423973e-20 
-5.51005085715719e-20 
-7.635513346643332e-22 
2.8467738927401893e-19 
2.8582271627601543e-19 
1.5271026693286663e-21 
</DataArray>
<DataArray type="Float64" Name="Nodal_sigma_yy" NumberOfComponents="1" format="ascii" >
-2.1861277845467313e-116 
-2.440328689726577e-116 
8.89703168129465e-117 
8.74451113818679e-116 
7.068955951807632e-116 
5.614127792035195e-117 
-2.2128452471594893e-20 
-2.3019262362036616e-20 
-1.7816197808834442e-21 
1.212774036558516e-19 
1.2394983332717676e-19 
3.5632395617668884e-21 
-2.1861277845467313e-116 
-2.440328689726577e-116 
8.89703168129465e-117 
8.74451113818679e-116 
7.068955951807632e-116 
5.614127792035195e-117 
-2.2128452471594893e-20 
-2.3019262362036616e-20 
-1.7816197808834442e-21 
1.212774036558516e-19 
1.2394983332717676e-19 
3.5632395617668884e-21 
</DataArray>
<DataArray type="Float64" Name="Nodal_sigma_xy" NumberOfComponents="1" format="ascii" >
-3.58762210843832e-115 
-3.3876507296968345e-115 
-2.94957783643689e-115 
-2.419992617312194e-115 
-9.288417955884071e-116 
1.3541266076457157e-116 
9.19347458082072e-21 
-2.3384715698190836e-20 
0.0 
6.515638055802311e-20 
6.515638055802311e-20 
6.515638055802311e-20 
-3.58762210843832e-115 
-3.3876507296968345e-115 
-2.94957783643689e-115 
-2.419992617312194e-115 
-9.288417955884071e-116 
1.3541266076457157e-116 
9.19347458082072e-21 
-2.3384715698190836e-20 
0.0 
6.515638055802311e-20 
6.515638055802311e-20 
6.515638055802311e-20 
</DataArray>
</PointData>
<CellData>
</CellData>
<Points>
<DataArray type="Float64" Name="Points" NumberOfComponents="3" format="ascii">
0.0 0.0 0.0
9.0 0.0 0.0
18.0 0.0 0.0
27.0 0.0 0.0
36.0 0.0 0.0
45.0 0.5 0.0
55.0 0.5 0.0
64.0 0.0 0.0
73.0 0.0 0.0
82.0 0.0 0.0
91.0 0.0 0.0
100.0 0.0 0.0
0.0 10.0 0.0
9.0 10.0 0.0
18.0 10.0 0.0
27.0 10.0 0.0
36.0 10.0 0.0
45.0 9.5 0.0
55.0 9.5 0.0
64.0 10.0 0.0
73.0 10.0 0.0
82.0 10.0 0.0
91.0 10.0 0.0
100.0 10.0 0.0
</DataArray>
</Points>
<Cells>
<DataArray type="Int64" Name="connectivity" format="ascii">
0 1 13 12 
1 2 14 13 
2 3 15 14 
3 4 16 15 
4 5 17 16 
5 6 18 17 
6 7 19 18 
7 8 20 19 
8 9 21 20 
9 10 22 21 
10 11 23 22 
</DataArray>
<DataArray type="Int64" Name="offsets" format="ascii">
4
8
12
16
20
24
28
32
36
40
44
</DataArray>
<DataArray type="UInt8" Name="types" format="ascii" RangeMin="9" RangeMax="9">
9
9
9
9
9
9
9
9
9
9
9
</DataArray>
</Cells>
</Piece>
</UnstructuredGrid>
</VTKFile>
