<?xml version="1.0"?>
<VTKFile type="UnstructuredGrid" version="0.1" byte_order="LittleEndian" compressor="vtkZLibDataCompressor">
<UnstructuredGrid>
<Piece NumberOfPoints="24" NumberOfCells="11">
<PointData>
<DataArray type="Float64" Name="displacement" NumberOfComponents="3" format="ascii" >
0.0 0.0  0.
5.397045112013912e-06 1.5994778532792402e-06  0.
1.1320432231319418e-05 1.3645903892744855e-06  0.
1.7164665069564013e-05 1.394263050528707e-06  0.
2.303156024293397e-05 1.4233445914513088e-06  0.
2.9197258617010303e-05 1.3696808186834686e-06  0.
3.6403026879843054e-05 1.369571207249095e-06  0.
4.256894781999158e-05 1.4240023748782357e-06  0.
4.84343776841809e-05 1.3898063173740597e-06  0.
5.4288560730424616e-05 1.3948439579822131e-06  0.
6.0144399741995736e-05 1.3940995608154827e-06  0.
6.600000000000003e-05 1.3942249672534142e-06  0.
0.0 0.0  0.
5.39704511201392e-06 -1.5994778532792487e-06  0.
1.132043223131943e-05 -1.3645903892745143e-06  0.
1.716466506956403e-05 -1.3942630505287647e-06  0.
2.3031560242933985e-05 -1.4233445914513958e-06  0.
2.9197258617010316e-05 -1.3696808186835876e-06  0.
3.6403026879843075e-05 -1.3695712072492537e-06  0.
4.2568947819991604e-05 -1.4240023748784276e-06  0.
4.843437768418091e-05 -1.3898063173742757e-06  0.
5.4288560730424616e-05 -1.3948439579824427e-06  0.
6.0144399741995736e-05 -1.3940995608157158e-06  0.
6.600000000000003e-05 -1.3942249672536455e-06  0.
</DataArray>
<DataArray type="Float64" Name="Nodal_sigma_xx" NumberOfComponents="1" format="ascii" >
7.149727688086207e-05 
7.149727688086205e-05 
7.149727688086205e-05 
7.149727688086205e-05 
7.337380740241624e-05 
7.734587834024189e-05 
7.73459177194384e-05 
7.337384678161273e-05 
7.149727688086205e-05 
7.149727688086205e-05 
7.1497276880862e-05 
7.1497276880862e-05 
7.149727688086207e-05 
7.149727688086205e-05 
7.149727688086205e-05 
7.149727688086205e-05 
7.337380740241624e-05 
7.734587834024189e-05 
7.73459177194384e-05 
7.337384678161273e-05 
7.149727688086205e-05 
7.149727688086205e-05 
7.1497276880862e-05 
7.1497276880862e-05 
</DataArray>
<DataArray type="Float64" Name="Nodal_sigma_yy" NumberOfComponents="1" format="ascii" >
1.3065010385432698e-05 
5.567260993814566e-06 
-8.029345365370336e-07 
1.794038043494614e-09 
-1.989158822009625e-07 
2.616105627608094e-07 
2.585319906837728e-07 
-1.811211041264173e-07 
-1.1907346649316158e-07 
1.754836567481362e-08 
-2.639836042968145e-09 
7.612119174604153e-10 
1.3065010385432698e-05 
5.567260993814566e-06 
-8.029345365370336e-07 
1.794038043494614e-09 
-1.989158822009625e-07 
2.616105627608094e-07 
2.585319906837728e-07 
-1.811211041264173e-07 
-1.1907346649316158e-07 
1.754836567481362e-08 
-2.639836042968145e-09 
7.612119174604153e-10 
</DataArray>
<DataArray type="Float64" Name="Nodal_sigma_xy" NumberOfComponents="1" format="ascii" >
-3.5998900258307764e-21 
-5.360130369343619e-21 
-7.123679435306674e-21 
-6.6190992616493275e-21 
-1.1201679855193101e-20 
-1.1200283987909418e-20 
-3.054209315487201e-21 
1.2217457647408219e-20 
1.6289667803006774e-20 
-4.072365251963409e-21 
-1.2216850186645875e-20 
-8.144549558167822e-21 
-3.5998900258307764e-21 
-5.360130369343619e-21 
-7.123679435306674e-21 
-6.6190992616493275e-21 
-1.1201679855193101e-20 
-1.1200283987909418e-20 
-3.054209315487201e-21 
1.2217457647408219e-20 
1.6289667803006774e-20 
-4.072365251963409e-21 
-1.2216850186645875e-20 
-8.144549558167822e-21 
</DataArray>
</PointData>
<CellData>
</CellData>
<Points>
<DataArray type="Float64" Name="Points" NumberOfComponents="3" format="ascii">
0.0 0.0 0.0
9.0 0.0 0.0
18.0 0.0 0.0
27.0 0.0 0.0
36.0 0.0 0.0
45.0 0.5 0.0
55.0 0.5 0.0
64.0 0.0 0.0
73.0 0.0 0.0
82.0 0.0 0.0
91.0 0.0 0.0
100.0 0.0 0.0
0.0 10.0 0.0
9.0 10.0 0.0
18.0 10.0 0.0
27.0 10.0 0.0
36.0 10.0 0.0
45.0 9.5 0.0
55.0 9.5 0.0
64.0 10.0 0.0
73.0 10.0 0.0
82.0 10.0 0.0
91.0 10.0 0.0
100.0 10.0 0.0
</DataArray>
</Points>
<Cells>
<DataArray type="Int64" Name="connectivity" format="ascii">
0 1 13 12 
1 2 14 13 
2 3 15 14 
3 4 16 15 
4 5 17 16 
5 6 18 17 
6 7 19 18 
7 8 20 19 
8 9 21 20 
9 10 22 21 
10 11 23 22 
</DataArray>
<DataArray type="Int64" Name="offsets" format="ascii">
4
8
12
16
20
24
28
32
36
40
44
</DataArray>
<DataArray type="UInt8" Name="types" format="ascii" RangeMin="9" RangeMax="9">
9
9
9
9
9
9
9
9
9
9
9
</DataArray>
</Cells>
</Piece>
</UnstructuredGrid>
</VTKFile>
