<?xml version="1.0"?>
<VTKFile type="UnstructuredGrid" version="0.1" byte_order="LittleEndian" compressor="vtkZLibDataCompressor">
<UnstructuredGrid>
<Piece NumberOfPoints="24" NumberOfCells="11">
<PointData>
<DataArray type="Float64" Name="displacement" NumberOfComponents="3" format="ascii" >
0.0 0.0  0.
6.500986157653116e-06 1.926643777813628e-06  0.
1.363597518772565e-05 1.6437111507169886e-06  0.
2.0675619288338456e-05 1.6794532199550248e-06  0.
2.77425612017159e-05 1.7144832578845177e-06  0.
3.5169425152307844e-05 1.6498428043232542e-06  0.
4.384910055981093e-05 1.649710772368215e-06  0.
5.1276232601353477e-05 1.7152755879214981e-06  0.
5.834140948321787e-05 1.6740848822914744e-06  0.
6.53930390616478e-05 1.680152949387664e-06  0.
7.244666332558573e-05 1.6792562891641013e-06  0.
7.95e-05 1.6794073469188776e-06  0.
0.0 0.0  0.
6.500986157653127e-06 -1.9266437778136397e-06  0.
1.3635975187725674e-05 -1.6437111507170316e-06  0.
2.067561928833848e-05 -1.6794532199551097e-06  0.
2.7742561201715924e-05 -1.714483257884648e-06  0.
3.5169425152307865e-05 -1.6498428043234255e-06  0.
4.384910055981095e-05 -1.6497107723684305e-06  0.
5.127623260135349e-05 -1.7152755879217535e-06  0.
5.8341409483217885e-05 -1.674084882291746e-06  0.
6.53930390616478e-05 -1.6801529493879425e-06  0.
7.244666332558573e-05 -1.6792562891643855e-06  0.
7.95e-05 -1.6794073469191696e-06  0.
</DataArray>
<DataArray type="Float64" Name="Nodal_sigma_xx" NumberOfComponents="1" format="ascii" >
8.612171987922017e-05 
8.612171987922018e-05 
8.612171987922016e-05 
8.612171987922016e-05 
8.838208618927406e-05 
9.316662618256406e-05 
9.31666736165962e-05 
8.838213362330618e-05 
8.612171987922016e-05 
8.612171987922016e-05 
8.612171987922009e-05 
8.612171987922006e-05 
8.612171987922017e-05 
8.612171987922018e-05 
8.612171987922016e-05 
8.612171987922016e-05 
8.838208618927406e-05 
9.316662618256406e-05 
9.31666736165962e-05 
8.838213362330618e-05 
8.612171987922016e-05 
8.612171987922016e-05 
8.612171987922009e-05 
8.612171987922006e-05 
</DataArray>
<DataArray type="Float64" Name="Nodal_sigma_yy" NumberOfComponents="1" format="ascii" >
1.573739887336211e-05 
6.706018924367554e-06 
-9.671711462832376e-07 
2.1610003705732503e-09 
-2.3960322174207025e-07 
3.1512181423461235e-07 
3.114135342327251e-07 
-2.1816860269774012e-07 
-1.43429402821311e-07 
2.113780410829911e-08 
-3.1798025063050793e-09 
9.169143551147646e-10 
1.573739887336211e-05 
6.706018924367554e-06 
-9.671711462832376e-07 
2.1610003705732503e-09 
-2.3960322174207025e-07 
3.1512181423461235e-07 
3.114135342327251e-07 
-2.1816860269774012e-07 
-1.43429402821311e-07 
2.113780410829911e-08 
-3.1798025063050793e-09 
9.169143551147646e-10 
</DataArray>
<DataArray type="Float64" Name="Nodal_sigma_xy" NumberOfComponents="1" format="ascii" >
-4.870439446712227e-21 
-1.9322939109238726e-21 
2.541098841762901e-21 
-3.052296460320672e-21 
-2.0398273905557662e-21 
3.050642099095566e-21 
-1.0177630256852453e-20 
2.0381730293306602e-21 
2.03606371876865e-20 
8.144833901503387e-21 
-1.6289099116335644e-20 
-3.257819823267129e-20 
-4.870439446712227e-21 
-1.9322939109238726e-21 
2.541098841762901e-21 
-3.052296460320672e-21 
-2.0398273905557662e-21 
3.050642099095566e-21 
-1.0177630256852453e-20 
2.0381730293306602e-21 
2.03606371876865e-20 
8.144833901503387e-21 
-1.6289099116335644e-20 
-3.257819823267129e-20 
</DataArray>
</PointData>
<CellData>
</CellData>
<Points>
<DataArray type="Float64" Name="Points" NumberOfComponents="3" format="ascii">
0.0 0.0 0.0
9.0 0.0 0.0
18.0 0.0 0.0
27.0 0.0 0.0
36.0 0.0 0.0
45.0 0.5 0.0
55.0 0.5 0.0
64.0 0.0 0.0
73.0 0.0 0.0
82.0 0.0 0.0
91.0 0.0 0.0
100.0 0.0 0.0
0.0 10.0 0.0
9.0 10.0 0.0
18.0 10.0 0.0
27.0 10.0 0.0
36.0 10.0 0.0
45.0 9.5 0.0
55.0 9.5 0.0
64.0 10.0 0.0
73.0 10.0 0.0
82.0 10.0 0.0
91.0 10.0 0.0
100.0 10.0 0.0
</DataArray>
</Points>
<Cells>
<DataArray type="Int64" Name="connectivity" format="ascii">
0 1 13 12 
1 2 14 13 
2 3 15 14 
3 4 16 15 
4 5 17 16 
5 6 18 17 
6 7 19 18 
7 8 20 19 
8 9 21 20 
9 10 22 21 
10 11 23 22 
</DataArray>
<DataArray type="Int64" Name="offsets" format="ascii">
4
8
12
16
20
24
28
32
36
40
44
</DataArray>
<DataArray type="UInt8" Name="types" format="ascii" RangeMin="9" RangeMax="9">
9
9
9
9
9
9
9
9
9
9
9
</DataArray>
</Cells>
</Piece>
</UnstructuredGrid>
</VTKFile>
