<?xml version="1.0"?>
<VTKFile type="UnstructuredGrid" version="0.1" byte_order="LittleEndian" compressor="vtkZLibDataCompressor">
<UnstructuredGrid>
<Piece NumberOfPoints="24" NumberOfCells="11">
<PointData>
<DataArray type="Float64" Name="displacement" NumberOfComponents="3" format="ascii" >
0.0 0.0  0.
-5.059238494940821e-62 -6.0163917237134085e-62  0.
-8.29532798269576e-62 -1.908229294187889e-61  0.
-9.996933722735916e-62 -3.609835034228045e-61  0.
-1.0574264241678112e-61 -5.469447021557644e-61  0.
-9.358831570220858e-62 -7.243978721885235e-61  0.
0.00013649999999999996 -2.1819548478826166e-06  0.
0.00013649999999999996 -2.181954847882601e-06  0.
0.00013649999999999996 -2.181954847882597e-06  0.
0.00013649999999999996 -2.181954847882586e-06  0.
0.00013649999999999996 -2.181954847882584e-06  0.
0.00013649999999999996 -2.181954847882598e-06  0.
0.0 0.0  0.
4.785766143862939e-62 -5.94042718174733e-62  0.
7.778769097326427e-62 -1.8960749674733166e-61  0.
9.328445753434426e-62 -3.5976807075134725e-61  0.
9.662689738085171e-62 -5.469447021557644e-61  0.
8.629571967346505e-62 -7.292596028743525e-61  0.
0.00013649999999999996 -2.1819548478826115e-06  0.
0.00013649999999999993 -2.1819548478826035e-06  0.
0.00013649999999999993 -2.1819548478825963e-06  0.
0.00013649999999999993 -2.1819548478825857e-06  0.
0.00013649999999999996 -2.1819548478825844e-06  0.
0.00013649999999999996 -2.181954847882598e-06  0.
</DataArray>
<DataArray type="Float64" Name="Nodal_sigma_xx" NumberOfComponents="1" format="ascii" >
-1.8260707203384252e-62 
-1.5371457530315453e-62 
-8.416157053293137e-63 
-9.511799485496231e-63 
-7.657459108980173e-63 
-3.207127481537511e-64 
-7.048736794357421e-20 
-7.27780219475672e-20 
-3.8177566733216616e-22 
1.155507686458691e-19 
1.1326011464187608e-19 
-7.635513346643332e-22 
-1.8260707203384252e-62 
-1.5371457530315453e-62 
-8.416157053293137e-63 
-9.511799485496231e-63 
-7.657459108980173e-63 
-3.207127481537511e-64 
-7.048736794357421e-20 
-7.27780219475672e-20 
-3.8177566733216616e-22 
1.155507686458691e-19 
1.1326011464187608e-19 
-7.635513346643332e-22 
</DataArray>
<DataArray type="Float64" Name="Nodal_sigma_yy" NumberOfComponents="1" format="ascii" >
-3.6521414406768815e-63 
9.252091649714246e-64 
8.497315751974698e-63 
5.9408167435009e-63 
-9.11099310502648e-63 
-9.305773981862548e-63 
-2.4873557669783596e-20 
-3.021841701243393e-20 
-8.908098904417223e-22 
5.243052498028421e-20 
4.7085665637633876e-20 
-1.7816197808834442e-21 
-3.6521414406768815e-63 
9.252091649714246e-64 
8.497315751974698e-63 
5.9408167435009e-63 
-9.11099310502648e-63 
-9.305773981862548e-63 
-2.4873557669783596e-20 
-3.021841701243393e-20 
-8.908098904417223e-22 
5.243052498028421e-20 
4.7085665637633876e-20 
-1.7816197808834442e-21 
</DataArray>
<DataArray type="Float64" Name="Nodal_sigma_xy" NumberOfComponents="1" format="ascii" >
-6.616057116532811e-62 
-6.255712494386028e-62 
-5.268822718416459e-62 
-4.145586328661621e-62 
-1.656234381267556e-62 
1.6821316509722737e-63 
-1.0725032161705919e-20 
-7.588141271972903e-20 
-9.773457083703467e-20 
-3.2578190279011556e-20 
-3.2578190279011556e-20 
-6.515638055802311e-20 
-6.616057116532811e-62 
-6.255712494386028e-62 
-5.268822718416459e-62 
-4.145586328661621e-62 
-1.656234381267556e-62 
1.6821316509722737e-63 
-1.0725032161705919e-20 
-7.588141271972903e-20 
-9.773457083703467e-20 
-3.2578190279011556e-20 
-3.2578190279011556e-20 
-6.515638055802311e-20 
</DataArray>
</PointData>
<CellData>
</CellData>
<Points>
<DataArray type="Float64" Name="Points" NumberOfComponents="3" format="ascii">
0.0 0.0 0.0
9.0 0.0 0.0
18.0 0.0 0.0
27.0 0.0 0.0
36.0 0.0 0.0
45.0 0.5 0.0
55.0 0.5 0.0
64.0 0.0 0.0
73.0 0.0 0.0
82.0 0.0 0.0
91.0 0.0 0.0
100.0 0.0 0.0
0.0 10.0 0.0
9.0 10.0 0.0
18.0 10.0 0.0
27.0 10.0 0.0
36.0 10.0 0.0
45.0 9.5 0.0
55.0 9.5 0.0
64.0 10.0 0.0
73.0 10.0 0.0
82.0 10.0 0.0
91.0 10.0 0.0
100.0 10.0 0.0
</DataArray>
</Points>
<Cells>
<DataArray type="Int64" Name="connectivity" format="ascii">
0 1 13 12 
1 2 14 13 
2 3 15 14 
3 4 16 15 
4 5 17 16 
5 6 18 17 
6 7 19 18 
7 8 20 19 
8 9 21 20 
9 10 22 21 
10 11 23 22 
</DataArray>
<DataArray type="Int64" Name="offsets" format="ascii">
4
8
12
16
20
24
28
32
36
40
44
</DataArray>
<DataArray type="UInt8" Name="types" format="ascii" RangeMin="9" RangeMax="9">
9
9
9
9
9
9
9
9
9
9
9
</DataArray>
</Cells>
</Piece>
</UnstructuredGrid>
</VTKFile>
