<?xml version="1.0"?>
<VTKFile type="UnstructuredGrid" version="0.1" byte_order="LittleEndian" compressor="vtkZLibDataCompressor">
<UnstructuredGrid>
<Piece NumberOfPoints="24" NumberOfCells="11">
<PointData>
<DataArray type="Float64" Name="displacement" NumberOfComponents="3" format="ascii" >
0.0 0.0  0.
3.6798034854640264e-06 1.090553081781296e-06  0.
7.718476521354139e-06 9.304025381416806e-07  0.
1.1703180729248178e-05 9.506338980877258e-07  0.
1.5703336529273143e-05 9.704622214440248e-07  0.
1.990722178432519e-05 9.338732854659272e-07  0.
2.482024559989298e-05 9.337985503970119e-07  0.
2.9024282604539703e-05 9.709107101441406e-07  0.
3.3023439330123325e-05 9.475952163912804e-07  0.
3.7014927770744035e-05 9.510299713513714e-07  0.
4.1007545278633446e-05 9.505224278285875e-07  0.
4.5000000000000016e-05 9.506079322180841e-07  0.
0.0 0.0  0.
3.6798034854640387e-06 -1.090553081781309e-06  0.
7.718476521354161e-06 -9.304025381417277e-07  0.
1.1703180729248209e-05 -9.506338980878226e-07  0.
1.570333652927318e-05 -9.704622214441825e-07  0.
1.9907221784325223e-05 -9.338732854661559e-07  0.
2.482024559989301e-05 -9.337985503973159e-07  0.
2.9024282604539727e-05 -9.709107101444934e-07  0.
3.3023439330123346e-05 -9.475952163916753e-07  0.
3.7014927770744055e-05 -9.510299713518029e-07  0.
4.100754527863345e-05 -9.50522427829047e-07  0.
4.5000000000000016e-05 -9.506079322185479e-07  0.
</DataArray>
<DataArray type="Float64" Name="Nodal_sigma_xx" NumberOfComponents="1" format="ascii" >
4.8748143327860487e-05 
4.8748143327860487e-05 
4.874814332786048e-05 
4.8748143327860487e-05 
5.002759595619288e-05 
5.273582614107401e-05 
5.2735852990526156e-05 
5.0027622805645e-05 
4.874814332786042e-05 
4.8748143327860487e-05 
4.8748143327860554e-05 
4.8748143327860514e-05 
4.8748143327860487e-05 
4.8748143327860487e-05 
4.874814332786048e-05 
4.8748143327860487e-05 
5.002759595619288e-05 
5.273582614107401e-05 
5.2735852990526156e-05 
5.0027622805645e-05 
4.874814332786042e-05 
4.8748143327860487e-05 
4.8748143327860554e-05 
4.8748143327860514e-05 
</DataArray>
<DataArray type="Float64" Name="Nodal_sigma_yy" NumberOfComponents="1" format="ascii" >
8.907961626431392e-06 
3.795859768509937e-06 
-5.474553658207038e-07 
1.2232077569273759e-09 
-1.3562446513701959e-07 
1.7837083824600732e-07 
1.7627181182984012e-07 
-1.234916619043884e-07 
-8.118645442718535e-08 
1.1964794778288635e-08 
-1.7998882110739867e-09 
5.190081255630611e-10 
8.907961626431392e-06 
3.795859768509937e-06 
-5.474553658207038e-07 
1.2232077569273759e-09 
-1.3562446513701959e-07 
1.7837083824600732e-07 
1.7627181182984012e-07 
-1.234916619043884e-07 
-8.118645442718535e-08 
1.1964794778288635e-08 
-1.7998882110739867e-09 
5.190081255630611e-10 
</DataArray>
<DataArray type="Float64" Name="Nodal_sigma_xy" NumberOfComponents="1" format="ascii" >
-3.917527381051139e-21 
-5.0094057896211356e-21 
-5.595876843921232e-21 
-2.545234744825666e-21 
-4.069728613760896e-21 
-4.069728613760896e-21 
2.0381730293306602e-21 
2.0381730293306602e-21 
0.0 
-4.072287703780982e-21 
-1.2924697071141057e-26 
8.144549558167822e-21 
-3.917527381051139e-21 
-5.0094057896211356e-21 
-5.595876843921232e-21 
-2.545234744825666e-21 
-4.069728613760896e-21 
-4.069728613760896e-21 
2.0381730293306602e-21 
2.0381730293306602e-21 
0.0 
-4.072287703780982e-21 
-1.2924697071141057e-26 
8.144549558167822e-21 
</DataArray>
</PointData>
<CellData>
</CellData>
<Points>
<DataArray type="Float64" Name="Points" NumberOfComponents="3" format="ascii">
0.0 0.0 0.0
9.0 0.0 0.0
18.0 0.0 0.0
27.0 0.0 0.0
36.0 0.0 0.0
45.0 0.5 0.0
55.0 0.5 0.0
64.0 0.0 0.0
73.0 0.0 0.0
82.0 0.0 0.0
91.0 0.0 0.0
100.0 0.0 0.0
0.0 10.0 0.0
9.0 10.0 0.0
18.0 10.0 0.0
27.0 10.0 0.0
36.0 10.0 0.0
45.0 9.5 0.0
55.0 9.5 0.0
64.0 10.0 0.0
73.0 10.0 0.0
82.0 10.0 0.0
91.0 10.0 0.0
100.0 10.0 0.0
</DataArray>
</Points>
<Cells>
<DataArray type="Int64" Name="connectivity" format="ascii">
0 1 13 12 
1 2 14 13 
2 3 15 14 
3 4 16 15 
4 5 17 16 
5 6 18 17 
6 7 19 18 
7 8 20 19 
8 9 21 20 
9 10 22 21 
10 11 23 22 
</DataArray>
<DataArray type="Int64" Name="offsets" format="ascii">
4
8
12
16
20
24
28
32
36
40
44
</DataArray>
<DataArray type="UInt8" Name="types" format="ascii" RangeMin="9" RangeMax="9">
9
9
9
9
9
9
9
9
9
9
9
</DataArray>
</Cells>
</Piece>
</UnstructuredGrid>
</VTKFile>
