<?xml version="1.0"?>
<VTKFile type="UnstructuredGrid" version="0.1" byte_order="LittleEndian" compressor="vtkZLibDataCompressor">
<UnstructuredGrid>
<Piece NumberOfPoints="24" NumberOfCells="11">
<PointData>
<DataArray type="Float64" Name="displacement" NumberOfComponents="3" format="ascii" >
0.0 0.0  0.
4.415764182556835e-06 1.308663698137559e-06  0.
9.262171825624974e-06 1.116483045770029e-06  0.
1.4043816875097823e-05 1.1407606777052946e-06  0.
1.8844003835127783e-05 1.1645546657328654e-06  0.
2.3888666141190236e-05 1.1206479425591641e-06  0.
2.9784294719871583e-05 1.1205582604764782e-06  0.
3.4829139125447655e-05 1.1650928521730346e-06  0.
3.9628127196148004e-05 1.137114259669609e-06  0.
4.441791332489286e-05 1.1412359656217303e-06  0.
4.920905433436015e-05 1.140626913394403e-06  0.
5.400000000000003e-05 1.1407295186617981e-06  0.
0.0 0.0  0.
4.415764182556844e-06 -1.308663698137568e-06  0.
9.26217182562499e-06 -1.1164830457700616e-06  0.
1.4043816875097845e-05 -1.140760677705364e-06  0.
1.884400383512781e-05 -1.1645546657329836e-06  0.
2.3888666141190266e-05 -1.1206479425593363e-06  0.
2.978429471987161e-05 -1.1205582604767162e-06  0.
3.4829139125447675e-05 -1.1650928521733264e-06  0.
3.962812719614802e-05 -1.1371142596699379e-06  0.
4.441791332489287e-05 -1.141235965622079e-06  0.
4.920905433436015e-05 -1.140626913394759e-06  0.
5.400000000000003e-05 -1.1407295186621602e-06  0.
</DataArray>
<DataArray type="Float64" Name="Nodal_sigma_xx" NumberOfComponents="1" format="ascii" >
5.849777199343259e-05 
5.84977719934326e-05 
5.84977719934326e-05 
5.8497771993432585e-05 
6.003311514743146e-05 
6.328299136928881e-05 
6.32830235886314e-05 
6.0033147366774036e-05 
5.8497771993432606e-05 
5.8497771993432606e-05 
5.8497771993432606e-05 
5.849777199343264e-05 
5.849777199343259e-05 
5.84977719934326e-05 
5.84977719934326e-05 
5.8497771993432585e-05 
6.003311514743146e-05 
6.328299136928881e-05 
6.32830235886314e-05 
6.0033147366774036e-05 
5.8497771993432606e-05 
5.8497771993432606e-05 
5.8497771993432606e-05 
5.849777199343264e-05 
</DataArray>
<DataArray type="Float64" Name="Nodal_sigma_yy" NumberOfComponents="1" format="ascii" >
1.0689553951717664e-05 
4.555031722211921e-06 
-6.569464389848415e-07 
1.4678493083162392e-09 
-1.6274935816442418e-07 
2.1404500589520676e-07 
2.1152617419581187e-07 
-1.481899942852566e-07 
-9.742374531258074e-08 
1.4357753733948734e-08 
-2.1598658533172443e-09 
6.228097506885482e-10 
1.0689553951717664e-05 
4.555031722211921e-06 
-6.569464389848415e-07 
1.4678493083162392e-09 
-1.6274935816442418e-07 
2.1404500589520676e-07 
2.1152617419581187e-07 
-1.481899942852566e-07 
-9.742374531258074e-08 
1.4357753733948734e-08 
-2.1598658533172443e-09 
6.228097506885482e-10 
</DataArray>
<DataArray type="Float64" Name="Nodal_sigma_xy" NumberOfComponents="1" format="ascii" >
-2.2234614865425384e-21 
-1.6212740006039342e-21 
-5.0954325733266505e-22 
-5.598358385758891e-21 
-3.563494078878443e-21 
-1.0193417774324851e-21 
-1.4250922855830716e-20 
-1.9341137082714893e-20 
2.0679515313825692e-25 
1.2216888960737089e-20 
-8.144562482864893e-21 
-2.4433648674503466e-20 
-2.2234614865425384e-21 
-1.6212740006039342e-21 
-5.0954325733266505e-22 
-5.598358385758891e-21 
-3.563494078878443e-21 
-1.0193417774324851e-21 
-1.4250922855830716e-20 
-1.9341137082714893e-20 
2.0679515313825692e-25 
1.2216888960737089e-20 
-8.144562482864893e-21 
-2.4433648674503466e-20 
</DataArray>
</PointData>
<CellData>
</CellData>
<Points>
<DataArray type="Float64" Name="Points" NumberOfComponents="3" format="ascii">
0.0 0.0 0.0
9.0 0.0 0.0
18.0 0.0 0.0
27.0 0.0 0.0
36.0 0.0 0.0
45.0 0.5 0.0
55.0 0.5 0.0
64.0 0.0 0.0
73.0 0.0 0.0
82.0 0.0 0.0
91.0 0.0 0.0
100.0 0.0 0.0
0.0 10.0 0.0
9.0 10.0 0.0
18.0 10.0 0.0
27.0 10.0 0.0
36.0 10.0 0.0
45.0 9.5 0.0
55.0 9.5 0.0
64.0 10.0 0.0
73.0 10.0 0.0
82.0 10.0 0.0
91.0 10.0 0.0
100.0 10.0 0.0
</DataArray>
</Points>
<Cells>
<DataArray type="Int64" Name="connectivity" format="ascii">
0 1 13 12 
1 2 14 13 
2 3 15 14 
3 4 16 15 
4 5 17 16 
5 6 18 17 
6 7 19 18 
7 8 20 19 
8 9 21 20 
9 10 22 21 
10 11 23 22 
</DataArray>
<DataArray type="Int64" Name="offsets" format="ascii">
4
8
12
16
20
24
28
32
36
40
44
</DataArray>
<DataArray type="UInt8" Name="types" format="ascii" RangeMin="9" RangeMax="9">
9
9
9
9
9
9
9
9
9
9
9
</DataArray>
</Cells>
</Piece>
</UnstructuredGrid>
</VTKFile>
