<?xml version="1.0"?>
<VTKFile type="UnstructuredGrid" version="0.1" byte_order="LittleEndian" compressor="vtkZLibDataCompressor">
<UnstructuredGrid>
<Piece NumberOfPoints="24" NumberOfCells="11">
<PointData>
<DataArray type="Float64" Name="displacement" NumberOfComponents="3" format="ascii" >
0.0 0.0  0.
6.623646273835248e-06 1.962995547206338e-06  0.
1.3893257738437452e-05 1.674724568655049e-06  0.
2.1065725312646724e-05 1.7111410165579609e-06  0.
2.826600575269166e-05 1.7468319985993374e-06  0.
3.583299921178534e-05 1.6809719138388048e-06  0.
4.4676442079807356e-05 1.6808373907148043e-06  0.
5.224370868817145e-05 1.7476392782596628e-06  0.
5.944219079422197e-05 1.7056713895045376e-06  0.
6.662686998733926e-05 1.7118539484327242e-06  0.
7.381358150154018e-05 1.710940370091732e-06  0.
8.099999999999999e-05 1.7110942779928322e-06  0.
0.0 0.0  0.
6.623646273835258e-06 -1.9629955472063484e-06  0.
1.3893257738437467e-05 -1.6747245686550834e-06  0.
2.106572531264674e-05 -1.7111410165580246e-06  0.
2.8266005752691682e-05 -1.7468319985994333e-06  0.
3.583299921178536e-05 -1.6809719138389433e-06  0.
4.467644207980737e-05 -1.6808373907149856e-06  0.
5.224370868817147e-05 -1.7476392782598758e-06  0.
5.9442190794221985e-05 -1.705671389504782e-06  0.
6.662686998733926e-05 -1.7118539484329887e-06  0.
7.381358150154018e-05 -1.7109403700920095e-06  0.
8.099999999999999e-05 -1.7110942779931052e-06  0.
</DataArray>
<DataArray type="Float64" Name="Nodal_sigma_xx" NumberOfComponents="1" format="ascii" >
8.774665799014881e-05 
8.774665799014881e-05 
8.774665799014881e-05 
8.774665799014881e-05 
9.004967272114717e-05 
9.492448705393321e-05 
9.492453538294704e-05 
9.004972105016104e-05 
8.774665799014888e-05 
8.774665799014883e-05 
8.774665799014876e-05 
8.774665799014875e-05 
8.774665799014881e-05 
8.774665799014881e-05 
8.774665799014881e-05 
8.774665799014881e-05 
9.004967272114717e-05 
9.492448705393321e-05 
9.492453538294704e-05 
9.004972105016104e-05 
8.774665799014888e-05 
8.774665799014883e-05 
8.774665799014876e-05 
8.774665799014875e-05 
</DataArray>
<DataArray type="Float64" Name="Nodal_sigma_yy" NumberOfComponents="1" format="ascii" >
1.6034330927576486e-05 
6.8325475833178785e-06 
-9.854196584772631e-07 
2.2017739624701236e-09 
-2.44124037246621e-07 
3.210675088428296e-07 
3.172892612937106e-07 
-2.2228499142786753e-07 
-1.4613561796886095e-07 
2.153663060090616e-08 
-3.23979878001483e-09 
9.342146259532012e-10 
1.6034330927576486e-05 
6.8325475833178785e-06 
-9.854196584772631e-07 
2.2017739624701236e-09 
-2.44124037246621e-07 
3.210675088428296e-07 
3.172892612937106e-07 
-2.2228499142786753e-07 
-1.4613561796886095e-07 
2.153663060090616e-08 
-3.23979878001483e-09 
9.342146259532012e-10 
</DataArray>
<DataArray type="Float64" Name="Nodal_sigma_xy" NumberOfComponents="1" format="ascii" >
-1.9058241313221758e-21 
-1.7205356741102976e-21 
-1.2771668657818747e-21 
-1.526975410772889e-21 
-7.131951241432205e-21 
-2.0422443089080696e-21 
2.040719194653675e-21 
2.0414817517808723e-21 
-8.14442031119711e-21 
-2.4434243210568738e-20 
-2.036133512132834e-20 
-1.6289099116335644e-20 
-1.9058241313221758e-21 
-1.7205356741102976e-21 
-1.2771668657818747e-21 
-1.526975410772889e-21 
-7.131951241432205e-21 
-2.0422443089080696e-21 
2.040719194653675e-21 
2.0414817517808723e-21 
-8.14442031119711e-21 
-2.4434243210568738e-20 
-2.036133512132834e-20 
-1.6289099116335644e-20 
</DataArray>
</PointData>
<CellData>
</CellData>
<Points>
<DataArray type="Float64" Name="Points" NumberOfComponents="3" format="ascii">
0.0 0.0 0.0
9.0 0.0 0.0
18.0 0.0 0.0
27.0 0.0 0.0
36.0 0.0 0.0
45.0 0.5 0.0
55.0 0.5 0.0
64.0 0.0 0.0
73.0 0.0 0.0
82.0 0.0 0.0
91.0 0.0 0.0
100.0 0.0 0.0
0.0 10.0 0.0
9.0 10.0 0.0
18.0 10.0 0.0
27.0 10.0 0.0
36.0 10.0 0.0
45.0 9.5 0.0
55.0 9.5 0.0
64.0 10.0 0.0
73.0 10.0 0.0
82.0 10.0 0.0
91.0 10.0 0.0
100.0 10.0 0.0
</DataArray>
</Points>
<Cells>
<DataArray type="Int64" Name="connectivity" format="ascii">
0 1 13 12 
1 2 14 13 
2 3 15 14 
3 4 16 15 
4 5 17 16 
5 6 18 17 
6 7 19 18 
7 8 20 19 
8 9 21 20 
9 10 22 21 
10 11 23 22 
</DataArray>
<DataArray type="Int64" Name="offsets" format="ascii">
4
8
12
16
20
24
28
32
36
40
44
</DataArray>
<DataArray type="UInt8" Name="types" format="ascii" RangeMin="9" RangeMax="9">
9
9
9
9
9
9
9
9
9
9
9
</DataArray>
</Cells>
</Piece>
</UnstructuredGrid>
</VTKFile>
