<?xml version="1.0"?>
<VTKFile type="UnstructuredGrid" version="0.1" byte_order="LittleEndian" compressor="vtkZLibDataCompressor">
<UnstructuredGrid>
<Piece NumberOfPoints="24" NumberOfCells="11">
<PointData>
<DataArray type="Float64" Name="displacement" NumberOfComponents="3" format="ascii" >
0.0 0.0  0.
4.90640464728532e-07 1.4540707757083442e-07  0.
1.0291302028472103e-06 1.2405367175220716e-07  0.
1.5604240972330797e-06 1.2675118641166305e-07  0.
2.093778203903074e-06 1.2939496285914983e-07  0.
2.6542962379100145e-06 1.2451643806205006e-07  0.
3.3093660799857205e-06 1.2450647338617461e-07  0.
3.8699043472719516e-06 1.2945476135244374e-07  0.
4.403125244016437e-06 1.26346028852051e-07  0.
4.935323702765867e-06 1.2680399618005542e-07  0.
5.467672703817789e-06 1.2673632371034633e-07  0.
6e-06 1.2674772429561047e-07  0.
0.0 0.0  0.
4.906404647285427e-07 -1.4540707757084612e-07  0.
1.0291302028472287e-06 -1.2405367175224713e-07  0.
1.5604240972331034e-06 -1.2675118641174328e-07  0.
2.0937782039031006e-06 -1.2939496285927757e-07  0.
2.6542962379100377e-06 -1.245164380622277e-07  0.
3.309366079985741e-06 -1.245064733864022e-07  0.
3.869904347271969e-06 -1.2945476135270745e-07  0.
4.40312524401645e-06 -1.2634602885234314e-07  0.
4.935323702765876e-06 -1.2680399618036774e-07  0.
5.467672703817793e-06 -1.267363237106716e-07  0.
6e-06 -1.2674772429594018e-07  0.
</DataArray>
<DataArray type="Float64" Name="Nodal_sigma_xx" NumberOfComponents="1" format="ascii" >
6.4997524437147285e-06 
6.499752443714728e-06 
6.499752443714728e-06 
6.499752443714729e-06 
6.670346127492381e-06 
7.03144348547653e-06 
7.031447065403487e-06 
6.670349707419339e-06 
6.499752443714729e-06 
6.49975244371473e-06 
6.4997524437147336e-06 
6.499752443714732e-06 
6.4997524437147285e-06 
6.499752443714728e-06 
6.499752443714728e-06 
6.499752443714729e-06 
6.670346127492381e-06 
7.03144348547653e-06 
7.031447065403487e-06 
6.670349707419339e-06 
6.499752443714729e-06 
6.49975244371473e-06 
6.4997524437147336e-06 
6.499752443714732e-06 
</DataArray>
<DataArray type="Float64" Name="Nodal_sigma_yy" NumberOfComponents="1" format="ascii" >
1.1877282168575175e-06 
5.061146358013241e-07 
-7.299404877609382e-08 
1.6309436759109323e-10 
-1.8083262018269112e-08 
2.3782778432800204e-08 
2.3502908243979508e-08 
-1.6465554920582254e-08 
-1.0824860590288408e-08 
1.5953059704379483e-09 
-2.399850948111566e-10 
6.920108340922694e-11 
1.1877282168575175e-06 
5.061146358013241e-07 
-7.299404877609382e-08 
1.6309436759109323e-10 
-1.8083262018269112e-08 
2.3782778432800204e-08 
2.3502908243979508e-08 
-1.6465554920582254e-08 
-1.0824860590288408e-08 
1.5953059704379483e-09 
-2.399850948111566e-10 
6.920108340922694e-11 
</DataArray>
<DataArray type="Float64" Name="Nodal_sigma_xy" NumberOfComponents="1" format="ascii" >
-4.3807485240808346e-21 
-4.417144471033168e-21 
-4.772004953818417e-21 
-5.090366092074763e-21 
-5.4721099447679855e-21 
-4.199564062085827e-21 
-1.5269435029269947e-21 
-2.54358038360056e-22 
1.5270788083494582e-21 
1.5270788083494582e-21 
-5.090343473854889e-22 
-1.0180686947709777e-21 
-4.3807485240808346e-21 
-4.417144471033168e-21 
-4.772004953818417e-21 
-5.090366092074763e-21 
-5.4721099447679855e-21 
-4.199564062085827e-21 
-1.5269435029269947e-21 
-2.54358038360056e-22 
1.5270788083494582e-21 
1.5270788083494582e-21 
-5.090343473854889e-22 
-1.0180686947709777e-21 
</DataArray>
</PointData>
<CellData>
</CellData>
<Points>
<DataArray type="Float64" Name="Points" NumberOfComponents="3" format="ascii">
0.0 0.0 0.0
9.0 0.0 0.0
18.0 0.0 0.0
27.0 0.0 0.0
36.0 0.0 0.0
45.0 0.5 0.0
55.0 0.5 0.0
64.0 0.0 0.0
73.0 0.0 0.0
82.0 0.0 0.0
91.0 0.0 0.0
100.0 0.0 0.0
0.0 10.0 0.0
9.0 10.0 0.0
18.0 10.0 0.0
27.0 10.0 0.0
36.0 10.0 0.0
45.0 9.5 0.0
55.0 9.5 0.0
64.0 10.0 0.0
73.0 10.0 0.0
82.0 10.0 0.0
91.0 10.0 0.0
100.0 10.0 0.0
</DataArray>
</Points>
<Cells>
<DataArray type="Int64" Name="connectivity" format="ascii">
0 1 13 12 
1 2 14 13 
2 3 15 14 
3 4 16 15 
4 5 17 16 
5 6 18 17 
6 7 19 18 
7 8 20 19 
8 9 21 20 
9 10 22 21 
10 11 23 22 
</DataArray>
<DataArray type="Int64" Name="offsets" format="ascii">
4
8
12
16
20
24
28
32
36
40
44
</DataArray>
<DataArray type="UInt8" Name="types" format="ascii" RangeMin="9" RangeMax="9">
9
9
9
9
9
9
9
9
9
9
9
</DataArray>
</Cells>
</Piece>
</UnstructuredGrid>
</VTKFile>
