<?xml version="1.0"?>
<VTKFile type="UnstructuredGrid" version="0.1" byte_order="LittleEndian" compressor="vtkZLibDataCompressor">
<UnstructuredGrid>
<Piece NumberOfPoints="24" NumberOfCells="11">
<PointData>
<DataArray type="Float64" Name="displacement" NumberOfComponents="3" format="ascii" >
0.0 0.0  0.
5.0981196500709325e-06 1.510869698399916e-06  0.
1.0693484233466371e-05 1.2891535308413213e-06  0.
1.621371559247512e-05 1.316079857397404e-06  0.
2.1757816806838175e-05 1.3510383410191664e-06  0.
3.118583118271458e-05 4.2182841565349975e-06  0.
9.292834335026498e-05 4.221667087862656e-06  0.
0.00010236462712887038 1.3523168793435691e-06  0.
0.00010790756032910139 1.3117731342863861e-06  0.
0.0001134371590062098 1.3177458934701736e-06  0.
0.0001189687210393586 1.3168633166133094e-06  0.
0.00012449999999999988 1.3170120017840182e-06  0.
0.0 0.0  0.
5.098119650070927e-06 -1.5108696983999103e-06  0.
1.0693484233466363e-05 -1.289153530841301e-06  0.
1.6213715592475113e-05 -1.3160798573973674e-06  0.
2.175781680683816e-05 -1.3510383410191136e-06  0.
3.1185831182714575e-05 -4.2182841565349255e-06  0.
9.292834335026494e-05 -4.22166708786254e-06  0.
0.00010236462712887034 -1.3523168793433944e-06  0.
0.00010790756032910139 -1.3117731342861765e-06  0.
0.0001134371590062098 -1.3177458934699479e-06  0.
0.0001189687210393586 -1.3168633166130864e-06  0.
0.00012449999999999988 -1.3170120017838173e-06  0.
</DataArray>
<DataArray type="Float64" Name="Nodal_sigma_xx" NumberOfComponents="1" format="ascii" >
6.753737043764261e-05 
6.753737043764262e-05 
6.753737043764264e-05 
6.753737043764264e-05 
6.915271737214888e-05 
6.37305065394253e-05 
6.373049651432919e-05 
6.915270734705282e-05 
6.753737043764269e-05 
6.753737043764268e-05 
6.753737043764272e-05 
6.753737043764275e-05 
6.753737043764261e-05 
6.753737043764262e-05 
6.753737043764264e-05 
6.753737043764264e-05 
6.915271737214888e-05 
6.37305065394253e-05 
6.373049651432919e-05 
6.915270734705282e-05 
6.753737043764269e-05 
6.753737043764268e-05 
6.753737043764272e-05 
6.753737043764275e-05 
</DataArray>
<DataArray type="Float64" Name="Nodal_sigma_yy" NumberOfComponents="1" format="ascii" >
1.2341623611737891e-05 
5.258362453269156e-06 
-7.546248535373372e-07 
-2.4377431423613997e-08 
-6.125344247091204e-06 
2.446039426690738e-06 
2.4473651370742845e-06 
-6.107380158758392e-06 
-1.411766332416304e-07 
2.0805803827069077e-08 
-3.1298590343023134e-09 
9.025128675981345e-10 
1.2341623611737891e-05 
5.258362453269156e-06 
-7.546248535373372e-07 
-2.4377431423613997e-08 
-6.125344247091204e-06 
2.446039426690738e-06 
2.4473651370742845e-06 
-6.107380158758392e-06 
-1.411766332416304e-07 
2.0805803827069077e-08 
-3.1298590343023134e-09 
9.025128675981345e-10 
</DataArray>
<DataArray type="Float64" Name="Nodal_sigma_xy" NumberOfComponents="1" format="ascii" >
1.5881867761018131e-21 
2.0514079191315086e-21 
6.3477840207319344e-21 
3.053950821545778e-21 
8.106370003019671e-23 
1.1517843794947353e-21 
-2.711794023511754e-20 
-1.8006067574054306e-20 
2.4434915294816438e-20 
2.0361154175569345e-20 
-1.221678556316052e-20 
-3.257819823267129e-20 
1.5881867761018131e-21 
2.0514079191315086e-21 
6.3477840207319344e-21 
3.053950821545778e-21 
8.106370003019671e-23 
1.1517843794947353e-21 
-2.711794023511754e-20 
-1.8006067574054306e-20 
2.4434915294816438e-20 
2.0361154175569345e-20 
-1.221678556316052e-20 
-3.257819823267129e-20 
</DataArray>
</PointData>
<CellData>
</CellData>
<Points>
<DataArray type="Float64" Name="Points" NumberOfComponents="3" format="ascii">
0.0 0.0 0.0
9.0 0.0 0.0
18.0 0.0 0.0
27.0 0.0 0.0
36.0 0.0 0.0
45.0 0.5 0.0
55.0 0.5 0.0
64.0 0.0 0.0
73.0 0.0 0.0
82.0 0.0 0.0
91.0 0.0 0.0
100.0 0.0 0.0
0.0 10.0 0.0
9.0 10.0 0.0
18.0 10.0 0.0
27.0 10.0 0.0
36.0 10.0 0.0
45.0 9.5 0.0
55.0 9.5 0.0
64.0 10.0 0.0
73.0 10.0 0.0
82.0 10.0 0.0
91.0 10.0 0.0
100.0 10.0 0.0
</DataArray>
</Points>
<Cells>
<DataArray type="Int64" Name="connectivity" format="ascii">
0 1 13 12 
1 2 14 13 
2 3 15 14 
3 4 16 15 
4 5 17 16 
5 6 18 17 
6 7 19 18 
7 8 20 19 
8 9 21 20 
9 10 22 21 
10 11 23 22 
</DataArray>
<DataArray type="Int64" Name="offsets" format="ascii">
4
8
12
16
20
24
28
32
36
40
44
</DataArray>
<DataArray type="UInt8" Name="types" format="ascii" RangeMin="9" RangeMax="9">
9
9
9
9
9
9
9
9
9
9
9
</DataArray>
</Cells>
</Piece>
</UnstructuredGrid>
</VTKFile>
