<?xml version="1.0"?>
<VTKFile type="UnstructuredGrid" version="0.1" byte_order="LittleEndian" compressor="vtkZLibDataCompressor">
<UnstructuredGrid>
<Piece NumberOfPoints="24" NumberOfCells="11">
<PointData>
<DataArray type="Float64" Name="displacement" NumberOfComponents="3" format="ascii" >
0.0 0.0  0.
2.0852219750962815e-06 6.179800796760692e-07  0.
4.373803362100678e-06 5.272281049469591e-07  0.
6.631802413240633e-06 5.386925422497255e-07  0.
8.898557366588113e-06 5.499285921516369e-07  0.
1.1280759011117604e-05 5.291948617640587e-07  0.
1.406480583993935e-05 5.291525118916857e-07  0.
1.6447093475905825e-05 5.501827357483995e-07  0.
1.8713282287069878e-05 5.369706226217885e-07  0.
2.0975125736754946e-05 5.389169837658468e-07  0.
2.3237608991225607e-05 5.386293757696125e-07  0.
2.5499999999999993e-05 5.38677828256996e-07  0.
0.0 0.0  0.
2.0852219750962845e-06 -6.179800796760725e-07  0.
4.373803362100684e-06 -5.272281049469712e-07  0.
6.631802413240641e-06 -5.38692542249751e-07  0.
8.898557366588123e-06 -5.499285921516796e-07  0.
1.1280759011117612e-05 -5.291948617641212e-07  0.
1.4064805839939356e-05 -5.291525118917659e-07  0.
1.644709347590583e-05 -5.50182735748492e-07  0.
1.871328228706988e-05 -5.369706226218857e-07  0.
2.097512573675495e-05 -5.389169837659513e-07  0.
2.3237608991225603e-05 -5.386293757697129e-07  0.
2.5499999999999993e-05 -5.386778282570946e-07  0.
</DataArray>
<DataArray type="Float64" Name="Nodal_sigma_xx" NumberOfComponents="1" format="ascii" >
2.762394788578758e-05 
2.7623947885787578e-05 
2.762394788578758e-05 
2.762394788578759e-05 
2.8348971041842618e-05 
2.9883634813275255e-05 
2.988365002796481e-05 
2.8348986256532176e-05 
2.7623947885787605e-05 
2.762394788578759e-05 
2.762394788578759e-05 
2.7623947885787598e-05 
2.762394788578758e-05 
2.7623947885787578e-05 
2.762394788578758e-05 
2.762394788578759e-05 
2.8348971041842618e-05 
2.9883634813275255e-05 
2.988365002796481e-05 
2.8348986256532176e-05 
2.7623947885787605e-05 
2.762394788578759e-05 
2.762394788578759e-05 
2.7623947885787598e-05 
</DataArray>
<DataArray type="Float64" Name="Nodal_sigma_yy" NumberOfComponents="1" format="ascii" >
5.047844921644447e-06 
2.150987202155628e-06 
-3.102247072983957e-07 
6.931510622633638e-10 
-7.685386357764268e-08 
1.0107680833940559e-07 
9.988736003691537e-08 
-6.997860841247294e-08 
-4.600565750871459e-08 
6.78005037436308e-09 
-1.0199366529556477e-09 
2.941046044863558e-10 
5.047844921644447e-06 
2.150987202155628e-06 
-3.102247072983957e-07 
6.931510622633638e-10 
-7.685386357764268e-08 
1.0107680833940559e-07 
9.988736003691537e-08 
-6.997860841247294e-08 
-4.600565750871459e-08 
6.78005037436308e-09 
-1.0199366529556477e-09 
2.941046044863558e-10 
</DataArray>
<DataArray type="Float64" Name="Nodal_sigma_xy" NumberOfComponents="1" format="ascii" >
-1.7999450129153882e-21 
-1.790018845564752e-21 
-1.1448179677733903e-21 
0.0 
-2.2912902967718867e-21 
5.081409277004462e-22 
2.5430052345808943e-21 
1.525321049547783e-21 
2.036518668105554e-21 
6.108405706277331e-21 
6.108405706277331e-21 
0.0 
-1.7999450129153882e-21 
-1.790018845564752e-21 
-1.1448179677733903e-21 
0.0 
-2.2912902967718867e-21 
5.081409277004462e-22 
2.5430052345808943e-21 
1.525321049547783e-21 
2.036518668105554e-21 
6.108405706277331e-21 
6.108405706277331e-21 
0.0 
</DataArray>
</PointData>
<CellData>
</CellData>
<Points>
<DataArray type="Float64" Name="Points" NumberOfComponents="3" format="ascii">
0.0 0.0 0.0
9.0 0.0 0.0
18.0 0.0 0.0
27.0 0.0 0.0
36.0 0.0 0.0
45.0 0.5 0.0
55.0 0.5 0.0
64.0 0.0 0.0
73.0 0.0 0.0
82.0 0.0 0.0
91.0 0.0 0.0
100.0 0.0 0.0
0.0 10.0 0.0
9.0 10.0 0.0
18.0 10.0 0.0
27.0 10.0 0.0
36.0 10.0 0.0
45.0 9.5 0.0
55.0 9.5 0.0
64.0 10.0 0.0
73.0 10.0 0.0
82.0 10.0 0.0
91.0 10.0 0.0
100.0 10.0 0.0
</DataArray>
</Points>
<Cells>
<DataArray type="Int64" Name="connectivity" format="ascii">
0 1 13 12 
1 2 14 13 
2 3 15 14 
3 4 16 15 
4 5 17 16 
5 6 18 17 
6 7 19 18 
7 8 20 19 
8 9 21 20 
9 10 22 21 
10 11 23 22 
</DataArray>
<DataArray type="Int64" Name="offsets" format="ascii">
4
8
12
16
20
24
28
32
36
40
44
</DataArray>
<DataArray type="UInt8" Name="types" format="ascii" RangeMin="9" RangeMax="9">
9
9
9
9
9
9
9
9
9
9
9
</DataArray>
</Cells>
</Piece>
</UnstructuredGrid>
</VTKFile>
