<?xml version="1.0"?>
<VTKFile type="UnstructuredGrid" version="0.1" byte_order="LittleEndian" compressor="vtkZLibDataCompressor">
<UnstructuredGrid>
<Piece NumberOfPoints="24" NumberOfCells="11">
<PointData>
<DataArray type="Float64" Name="displacement" NumberOfComponents="3" format="ascii" >
0.0 0.0  0.
1.9625618589141434e-06 5.816283102833545e-07  0.
4.116520811388867e-06 4.962146870088853e-07  0.
6.241696388932352e-06 5.070047456467653e-07  0.
8.375112815612333e-06 5.175798514367787e-07  0.
1.061718495164009e-05 4.980657522484477e-07  0.
1.323746431994291e-05 4.980258935450115e-07  0.
1.5479617389087827e-05 5.17819045410135e-07  0.
1.761250097606576e-05 5.053841154086005e-07  0.
1.9741294811063473e-05 5.072159847206415e-07  0.
2.1870690815271153e-05 5.069452948418186e-07  0.
2.3999999999999994e-05 5.069908971828796e-07  0.
0.0 0.0  0.
1.9625618589141556e-06 -5.816283102833676e-07  0.
4.1165208113888894e-06 -4.962146870089319e-07  0.
6.241696388932382e-06 -5.0700474564686e-07  0.
8.375112815612365e-06 -5.175798514369312e-07  0.
1.061718495164012e-05 -4.980657522486627e-07  0.
1.3237464319942936e-05 -4.980258935452959e-07  0.
1.547961738908785e-05 -5.178190454104691e-07  0.
1.761250097606578e-05 -5.053841154089755e-07  0.
1.9741294811063487e-05 -5.072159847210507e-07  0.
2.1870690815271163e-05 -5.06945294842253e-07  0.
2.3999999999999994e-05 -5.06990897183323e-07  0.
</DataArray>
<DataArray type="Float64" Name="Nodal_sigma_xx" NumberOfComponents="1" format="ascii" >
2.5999009774858914e-05 
2.5999009774858917e-05 
2.5999009774858917e-05 
2.599900977485891e-05 
2.6681384509969523e-05 
2.812577394190612e-05 
2.812578826161392e-05 
2.6681398829677323e-05 
2.5999009774858894e-05 
2.5999009774858904e-05 
2.5999009774858904e-05 
2.5999009774858887e-05 
2.5999009774858914e-05 
2.5999009774858917e-05 
2.5999009774858917e-05 
2.599900977485891e-05 
2.6681384509969523e-05 
2.812577394190612e-05 
2.812578826161392e-05 
2.6681398829677323e-05 
2.5999009774858894e-05 
2.5999009774858904e-05 
2.5999009774858904e-05 
2.5999009774858887e-05 
</DataArray>
<DataArray type="Float64" Name="Nodal_sigma_yy" NumberOfComponents="1" format="ascii" >
4.75091286743007e-06 
2.0244585432052983e-06 
-2.919761951043736e-07 
6.523774703609848e-10 
-7.233304807307539e-08 
9.513111373120357e-08 
9.401163297590829e-08 
-6.58622196823413e-08 
-4.329944236115744e-08 
6.381223881748405e-09 
-9.59940379257332e-10 
2.768043336191201e-10 
4.75091286743007e-06 
2.0244585432052983e-06 
-2.919761951043736e-07 
6.523774703609848e-10 
-7.233304807307539e-08 
9.513111373120357e-08 
9.401163297590829e-08 
-6.58622196823413e-08 
-4.329944236115744e-08 
6.381223881748405e-09 
-9.59940379257332e-10 
2.768043336191201e-10 
</DataArray>
<DataArray type="Float64" Name="Nodal_sigma_xy" NumberOfComponents="1" format="ascii" >
-5.029258124322408e-21 
-5.568579883706982e-21 
-5.599185566371444e-21 
-5.090469489651332e-21 
-5.089642309038779e-21 
-9.670886812022823e-21 
-7.63436814391727e-21 
-2.54358038360056e-21 
-2.035691487493001e-21 
-6.108418630974402e-21 
-4.0722828570195804e-21 
4.072271547909643e-21 
-5.029258124322408e-21 
-5.568579883706982e-21 
-5.599185566371444e-21 
-5.090469489651332e-21 
-5.089642309038779e-21 
-9.670886812022823e-21 
-7.63436814391727e-21 
-2.54358038360056e-21 
-2.035691487493001e-21 
-6.108418630974402e-21 
-4.0722828570195804e-21 
4.072271547909643e-21 
</DataArray>
</PointData>
<CellData>
</CellData>
<Points>
<DataArray type="Float64" Name="Points" NumberOfComponents="3" format="ascii">
0.0 0.0 0.0
9.0 0.0 0.0
18.0 0.0 0.0
27.0 0.0 0.0
36.0 0.0 0.0
45.0 0.5 0.0
55.0 0.5 0.0
64.0 0.0 0.0
73.0 0.0 0.0
82.0 0.0 0.0
91.0 0.0 0.0
100.0 0.0 0.0
0.0 10.0 0.0
9.0 10.0 0.0
18.0 10.0 0.0
27.0 10.0 0.0
36.0 10.0 0.0
45.0 9.5 0.0
55.0 9.5 0.0
64.0 10.0 0.0
73.0 10.0 0.0
82.0 10.0 0.0
91.0 10.0 0.0
100.0 10.0 0.0
</DataArray>
</Points>
<Cells>
<DataArray type="Int64" Name="connectivity" format="ascii">
0 1 13 12 
1 2 14 13 
2 3 15 14 
3 4 16 15 
4 5 17 16 
5 6 18 17 
6 7 19 18 
7 8 20 19 
8 9 21 20 
9 10 22 21 
10 11 23 22 
</DataArray>
<DataArray type="Int64" Name="offsets" format="ascii">
4
8
12
16
20
24
28
32
36
40
44
</DataArray>
<DataArray type="UInt8" Name="types" format="ascii" RangeMin="9" RangeMax="9">
9
9
9
9
9
9
9
9
9
9
9
</DataArray>
</Cells>
</Piece>
</UnstructuredGrid>
</VTKFile>
