<?xml version="1.0"?>
<VTKFile type="UnstructuredGrid" version="0.1" byte_order="LittleEndian" compressor="vtkZLibDataCompressor">
<UnstructuredGrid>
<Piece NumberOfPoints="24" NumberOfCells="11">
<PointData>
<DataArray type="Float64" Name="displacement" NumberOfComponents="3" format="ascii" >
0.0 0.0  0.
1.103941045639204e-06 3.271659245343853e-07  0.
2.315542956406235e-06 2.7912076144249333e-07  0.
3.5109542187744444e-06 2.851901694262964e-07  0.
4.711000958781933e-06 2.9113866643317337e-07  0.
5.972166535297546e-06 2.8016198563973136e-07  0.
7.446073679967883e-06 2.801395651190428e-07  0.
8.7072847813619e-06 2.9127321304316977e-07  0.
9.90703179903699e-06 2.842785649173034e-07  0.
1.1104478331223205e-05 2.8530899140532623e-07  0.
1.2302263583590027e-05 2.851567283484877e-07  0.
1.35e-05 2.8518237966533455e-07  0.
0.0 0.0  0.
1.1039410456392137e-06 -3.2716592453439565e-07  0.
2.3155429564062515e-06 -2.7912076144252875e-07  0.
3.510954218774466e-06 -2.851901694263678e-07  0.
4.711000958781958e-06 -2.9113866643328835e-07  0.
5.97216653529757e-06 -2.801619856398934e-07  0.
7.446073679967904e-06 -2.801395651192555e-07  0.
8.707284781361919e-06 -2.9127321304342023e-07  0.
9.907031799037003e-06 -2.8427856491758347e-07  0.
1.1104478331223215e-05 -2.853089914056262e-07  0.
1.2302263583590033e-05 -2.8515672834880265e-07  0.
1.35e-05 -2.8518237966565473e-07  0.
</DataArray>
<DataArray type="Float64" Name="Nodal_sigma_xx" NumberOfComponents="1" format="ascii" >
1.4624442998358133e-05 
1.4624442998358131e-05 
1.4624442998358133e-05 
1.4624442998358138e-05 
1.5008278786857863e-05 
1.5820747842322202e-05 
1.5820755897157843e-05 
1.5008286841693512e-05 
1.4624442998358143e-05 
1.4624442998358138e-05 
1.4624442998358145e-05 
1.4624442998358141e-05 
1.4624442998358133e-05 
1.4624442998358131e-05 
1.4624442998358133e-05 
1.4624442998358138e-05 
1.5008278786857863e-05 
1.5820747842322202e-05 
1.5820755897157843e-05 
1.5008286841693512e-05 
1.4624442998358143e-05 
1.4624442998358138e-05 
1.4624442998358145e-05 
1.4624442998358141e-05 
</DataArray>
<DataArray type="Float64" Name="Nodal_sigma_yy" NumberOfComponents="1" format="ascii" >
2.672388487929415e-06 
1.1387579305529796e-06 
-1.6423660974621038e-07 
3.669623270811774e-10 
-4.068733954110308e-08 
5.351125147380338e-08 
5.288154354895212e-08 
-3.704749857131076e-08 
-2.4355936328148997e-08 
3.5894384334804073e-09 
-5.399664633301581e-10 
1.5570243766620782e-10 
2.672388487929415e-06 
1.1387579305529796e-06 
-1.6423660974621038e-07 
3.669623270811774e-10 
-4.068733954110308e-08 
5.351125147380338e-08 
5.288154354895212e-08 
-3.704749857131076e-08 
-2.4355936328148997e-08 
3.5894384334804073e-09 
-5.399664633301581e-10 
1.5570243766620782e-10 
</DataArray>
<DataArray type="Float64" Name="Nodal_sigma_xy" NumberOfComponents="1" format="ascii" >
-3.3881317890172014e-21 
-3.5386786605018524e-21 
-3.3715881767661408e-21 
-4.072003360445417e-21 
-4.071176179832864e-21 
-2.5442169249313138e-21 
-1.7815564001574223e-21 
-1.7817470394392216e-21 
-1.018259334052777e-21 
1.0180719259452455e-21 
3.054209315487201e-21 
4.072274779083911e-21 
-3.3881317890172014e-21 
-3.5386786605018524e-21 
-3.3715881767661408e-21 
-4.072003360445417e-21 
-4.071176179832864e-21 
-2.5442169249313138e-21 
-1.7815564001574223e-21 
-1.7817470394392216e-21 
-1.018259334052777e-21 
1.0180719259452455e-21 
3.054209315487201e-21 
4.072274779083911e-21 
</DataArray>
</PointData>
<CellData>
</CellData>
<Points>
<DataArray type="Float64" Name="Points" NumberOfComponents="3" format="ascii">
0.0 0.0 0.0
9.0 0.0 0.0
18.0 0.0 0.0
27.0 0.0 0.0
36.0 0.0 0.0
45.0 0.5 0.0
55.0 0.5 0.0
64.0 0.0 0.0
73.0 0.0 0.0
82.0 0.0 0.0
91.0 0.0 0.0
100.0 0.0 0.0
0.0 10.0 0.0
9.0 10.0 0.0
18.0 10.0 0.0
27.0 10.0 0.0
36.0 10.0 0.0
45.0 9.5 0.0
55.0 9.5 0.0
64.0 10.0 0.0
73.0 10.0 0.0
82.0 10.0 0.0
91.0 10.0 0.0
100.0 10.0 0.0
</DataArray>
</Points>
<Cells>
<DataArray type="Int64" Name="connectivity" format="ascii">
0 1 13 12 
1 2 14 13 
2 3 15 14 
3 4 16 15 
4 5 17 16 
5 6 18 17 
6 7 19 18 
7 8 20 19 
8 9 21 20 
9 10 22 21 
10 11 23 22 
</DataArray>
<DataArray type="Int64" Name="offsets" format="ascii">
4
8
12
16
20
24
28
32
36
40
44
</DataArray>
<DataArray type="UInt8" Name="types" format="ascii" RangeMin="9" RangeMax="9">
9
9
9
9
9
9
9
9
9
9
9
</DataArray>
</Cells>
</Piece>
</UnstructuredGrid>
</VTKFile>
