<?xml version="1.0"?>
<VTKFile type="UnstructuredGrid" version="0.1" byte_order="LittleEndian" compressor="vtkZLibDataCompressor">
<UnstructuredGrid>
<Piece NumberOfPoints="24" NumberOfCells="11">
<PointData>
<DataArray type="Float64" Name="displacement" NumberOfComponents="3" format="ascii" >
0.0 0.0  0.
-1.5401584185817257e-168 -1.8051319099506247e-168  0.
-2.525528589609819e-168 -5.763173437273554e-168  0.
-3.055475572347617e-168 -1.0897034832545973e-167  0.
-3.221084004453179e-168 -1.669332995624064e-167  0.
-2.865025875426221e-168 -2.2059043156460846e-167  0.
0.00014850000000000003 -5.396950759717776e-06  0.
0.00014850000000000003 -5.396950759717768e-06  0.
0.00014850000000000003 -5.396950759717767e-06  0.
0.00014850000000000003 -5.396950759717757e-06  0.
0.00014850000000000003 -5.3969507597177486e-06  0.
0.00014850000000000003 -5.396950759717747e-06  0.
0.0 0.0  0.
1.4614944133315838e-168 -1.7885710667400686e-168  0.
2.368200579109535e-168 -5.763173437273554e-168  0.
2.8401846106103866e-168 -1.0930156518967086e-167  0.
2.939549669873724e-168 -1.6627086583398415e-167  0.
2.6331740704784343e-168 -2.2191529902145295e-167  0.
0.00014850000000000003 -5.396950759717773e-06  0.
0.00014850000000000003 -5.396950759717769e-06  0.
0.00014850000000000003 -5.396950759717766e-06  0.
0.00014850000000000003 -5.396950759717757e-06  0.
0.00014850000000000003 -5.3969507597177486e-06  0.
0.00014850000000000003 -5.396950759717747e-06  0.
</DataArray>
<DataArray type="Float64" Name="Nodal_sigma_xx" NumberOfComponents="1" format="ascii" >
-5.405275214556539e-169 
-5.405275214556548e-169 
-5.347772286742106e-169 
-4.644467246550186e-169 
-1.4177183612193222e-169 
5.8161420586703674e-170 
-1.6486842982402407e-20 
-1.6486842982402407e-20 
2.2906540039929996e-21 
2.2906540039929996e-21 
-7.635513346643332e-22 
-1.5271026693286663e-21 
-5.405275214556539e-169 
-5.405275214556548e-169 
-5.347772286742106e-169 
-4.644467246550186e-169 
-1.4177183612193222e-169 
5.8161420586703674e-170 
-1.6486842982402407e-20 
-1.6486842982402407e-20 
2.2906540039929996e-21 
2.2906540039929996e-21 
-7.635513346643332e-22 
-1.5271026693286663e-21 
</DataArray>
<DataArray type="Float64" Name="Nodal_sigma_yy" NumberOfComponents="1" format="ascii" >
-1.4066100803837803e-169 
-1.4066100803837968e-169 
-2.746870628673977e-169 
-1.990485962807222e-169 
-9.218048096416995e-170 
-9.748844353165478e-170 
-4.420923732013911e-21 
-4.420923732013911e-21 
5.344859342650333e-21 
5.344859342650333e-21 
-1.7816197808834442e-21 
-3.5632395617668884e-21 
-1.4066100803837803e-169 
-1.4066100803837968e-169 
-2.746870628673977e-169 
-1.990485962807222e-169 
-9.218048096416995e-170 
-9.748844353165478e-170 
-4.420923732013911e-21 
-4.420923732013911e-21 
5.344859342650333e-21 
5.344859342650333e-21 
-1.7816197808834442e-21 
-3.5632395617668884e-21 
</DataArray>
<DataArray type="Float64" Name="Nodal_sigma_xy" NumberOfComponents="1" format="ascii" >
-1.906443222155373e-168 
-1.8365550483501414e-168 
-1.5140963223753688e-168 
-1.3172593771644302e-168 
-6.051673242822528e-169 
8.132916777926326e-170 
1.1235551355334314e-20 
1.1235551355334314e-20 
3.2578190279011556e-20 
6.515638055802311e-20 
3.2578190279011556e-20 
0.0 
-1.906443222155373e-168 
-1.8365550483501414e-168 
-1.5140963223753688e-168 
-1.3172593771644302e-168 
-6.051673242822528e-169 
8.132916777926326e-170 
1.1235551355334314e-20 
1.1235551355334314e-20 
3.2578190279011556e-20 
6.515638055802311e-20 
3.2578190279011556e-20 
0.0 
</DataArray>
</PointData>
<CellData>
</CellData>
<Points>
<DataArray type="Float64" Name="Points" NumberOfComponents="3" format="ascii">
0.0 0.0 0.0
9.0 0.0 0.0
18.0 0.0 0.0
27.0 0.0 0.0
36.0 0.0 0.0
45.0 0.5 0.0
55.0 0.5 0.0
64.0 0.0 0.0
73.0 0.0 0.0
82.0 0.0 0.0
91.0 0.0 0.0
100.0 0.0 0.0
0.0 10.0 0.0
9.0 10.0 0.0
18.0 10.0 0.0
27.0 10.0 0.0
36.0 10.0 0.0
45.0 9.5 0.0
55.0 9.5 0.0
64.0 10.0 0.0
73.0 10.0 0.0
82.0 10.0 0.0
91.0 10.0 0.0
100.0 10.0 0.0
</DataArray>
</Points>
<Cells>
<DataArray type="Int64" Name="connectivity" format="ascii">
0 1 13 12 
1 2 14 13 
2 3 15 14 
3 4 16 15 
4 5 17 16 
5 6 18 17 
6 7 19 18 
7 8 20 19 
8 9 21 20 
9 10 22 21 
10 11 23 22 
</DataArray>
<DataArray type="Int64" Name="offsets" format="ascii">
4
8
12
16
20
24
28
32
36
40
44
</DataArray>
<DataArray type="UInt8" Name="types" format="ascii" RangeMin="9" RangeMax="9">
9
9
9
9
9
9
9
9
9
9
9
</DataArray>
</Cells>
</Piece>
</UnstructuredGrid>
</VTKFile>
