<?xml version="1.0"?>
<VTKFile type="UnstructuredGrid" version="0.1" byte_order="LittleEndian" compressor="vtkZLibDataCompressor">
<UnstructuredGrid>
<Piece NumberOfPoints="24" NumberOfCells="11">
<PointData>
<DataArray type="Float64" Name="displacement" NumberOfComponents="3" format="ascii" >
0.0 0.0  0.
7.698860899444042e-06 2.281567621339637e-06  0.
1.6148792718458457e-05 1.947220902589884e-06  0.
2.4484195672472848e-05 1.984640934302588e-06  0.
3.2862885805737976e-05 2.059446922869636e-06  0.
4.239219908978642e-05 2.4065756607189956e-06  0.
5.603579067184658e-05 2.4067212315974977e-06  0.
6.556715775241576e-05 2.0606382999886013e-06  0.
7.394384081239889e-05 1.9782460338600925e-06  0.
8.229342569543105e-05 1.9903837671528006e-06  0.
9.064700047513298e-05 1.988590210411385e-06  0.
9.899999999999994e-05 1.9888923657287574e-06  0.
0.0 0.0  0.
7.698860899444028e-06 -2.281567621339623e-06  0.
1.614879271845843e-05 -1.9472209025898335e-06  0.
2.4484195672472818e-05 -1.984640934302482e-06  0.
3.286288580573794e-05 -2.059446922869472e-06  0.
4.23921990897864e-05 -2.4065756607187707e-06  0.
5.603579067184656e-05 -2.406721231597236e-06  0.
6.556715775241575e-05 -2.060638299988307e-06  0.
7.394384081239887e-05 -1.978246033859766e-06  0.
8.229342569543105e-05 -1.990383767152458e-06  0.
9.0647000475133e-05 -1.9885902104110432e-06  0.
9.899999999999994e-05 -1.988892365728423e-06  0.
</DataArray>
<DataArray type="Float64" Name="Nodal_sigma_xx" NumberOfComponents="1" format="ascii" >
0.00010199101221899836 
0.00010199101221899838 
0.0001019910122189984 
0.00010199101221899839 
0.00010265767764589354 
0.0001039390981682548 
0.00010393632649143464 
0.00010265490596907343 
0.00010199101221899844 
0.00010199101221899836 
0.00010199101221899827 
0.00010199101221899828 
0.00010199101221899836 
0.00010199101221899838 
0.0001019910122189984 
0.00010199101221899839 
0.00010265767764589354 
0.0001039390981682548 
0.00010393632649143464 
0.00010265490596907343 
0.00010199101221899844 
0.00010199101221899836 
0.00010199101221899827 
0.00010199101221899828 
</DataArray>
<DataArray type="Float64" Name="Nodal_sigma_yy" NumberOfComponents="1" format="ascii" >
1.8638262145069297e-05 
7.93924619677337e-06 
-1.1283044381319153e-06 
-1.1346560979455749e-07 
-1.387709853761209e-06 
1.276037505753544e-06 
1.2737221464482442e-06 
-1.3614344255736103e-06 
-2.8689660318168033e-07 
4.2281178601475254e-08 
-6.3604429768381266e-09 
1.8340703420580075e-09 
1.8638262145069297e-05 
7.93924619677337e-06 
-1.1283044381319153e-06 
-1.1346560979455749e-07 
-1.387709853761209e-06 
1.276037505753544e-06 
1.2737221464482442e-06 
-1.3614344255736103e-06 
-2.8689660318168033e-07 
4.2281178601475254e-08 
-6.3604429768381266e-09 
1.8340703420580075e-09 
</DataArray>
<DataArray type="Float64" Name="Nodal_sigma_xy" NumberOfComponents="1" format="ascii" >
4.658681209898652e-21 
4.367513634279986e-21 
5.0937782121015444e-21 
5.090469489651332e-21 
1.3125701959991443e-20 
5.518247882137691e-21 
-3.8451296904071424e-22 
5.1880768019325896e-21 
0.0 
2.443357112632104e-20 
3.257812068448886e-20 
1.6289099116335644e-20 
4.658681209898652e-21 
4.367513634279986e-21 
5.0937782121015444e-21 
5.090469489651332e-21 
1.3125701959991443e-20 
5.518247882137691e-21 
-3.8451296904071424e-22 
5.1880768019325896e-21 
0.0 
2.443357112632104e-20 
3.257812068448886e-20 
1.6289099116335644e-20 
</DataArray>
</PointData>
<CellData>
</CellData>
<Points>
<DataArray type="Float64" Name="Points" NumberOfComponents="3" format="ascii">
0.0 0.0 0.0
9.0 0.0 0.0
18.0 0.0 0.0
27.0 0.0 0.0
36.0 0.0 0.0
45.0 0.5 0.0
55.0 0.5 0.0
64.0 0.0 0.0
73.0 0.0 0.0
82.0 0.0 0.0
91.0 0.0 0.0
100.0 0.0 0.0
0.0 10.0 0.0
9.0 10.0 0.0
18.0 10.0 0.0
27.0 10.0 0.0
36.0 10.0 0.0
45.0 9.5 0.0
55.0 9.5 0.0
64.0 10.0 0.0
73.0 10.0 0.0
82.0 10.0 0.0
91.0 10.0 0.0
100.0 10.0 0.0
</DataArray>
</Points>
<Cells>
<DataArray type="Int64" Name="connectivity" format="ascii">
0 1 13 12 
1 2 14 13 
2 3 15 14 
3 4 16 15 
4 5 17 16 
5 6 18 17 
6 7 19 18 
7 8 20 19 
8 9 21 20 
9 10 22 21 
10 11 23 22 
</DataArray>
<DataArray type="Int64" Name="offsets" format="ascii">
4
8
12
16
20
24
28
32
36
40
44
</DataArray>
<DataArray type="UInt8" Name="types" format="ascii" RangeMin="9" RangeMax="9">
9
9
9
9
9
9
9
9
9
9
9
</DataArray>
</Cells>
</Piece>
</UnstructuredGrid>
</VTKFile>
