<?xml version="1.0"?>
<VTKFile type="UnstructuredGrid" version="0.1" byte_order="LittleEndian" compressor="vtkZLibDataCompressor">
<UnstructuredGrid>
<Piece NumberOfPoints="24" NumberOfCells="11">
<PointData>
<DataArray type="Float64" Name="displacement" NumberOfComponents="3" format="ascii" >
0.0 0.0  0.
7.5625945190331575e-06 2.2412899709683965e-06  0.
1.5862644502364392e-05 1.911921574106095e-06  0.
2.405230315659599e-05 1.9550902288581632e-06  0.
3.227016700604893e-05 1.985046154309505e-06  0.
4.092990985682396e-05 1.9781431960741198e-06  0.
5.150999560191039e-05 1.9779864929785438e-06  0.
6.017004925949793e-05 1.9859683630727557e-06  0.
6.83858600244126e-05 1.9488452083286153e-06  0.
7.658946127181422e-05 1.954314058409306e-06  0.
8.479486023104543e-05 1.9535059427015455e-06  0.
9.299999999999996e-05 1.953642083617783e-06  0.
0.0 0.0  0.
7.5625945190331736e-06 -2.241289970968414e-06  0.
1.5862644502364423e-05 -1.911921574106154e-06  0.
2.4052303156596028e-05 -1.9550902288582835e-06  0.
3.227016700604898e-05 -1.9850461543097e-06  0.
4.0929909856824e-05 -1.9781431960743997e-06  0.
5.150999560191044e-05 -1.9779864929789288e-06  0.
6.0170049259497985e-05 -1.9859683630732334e-06  0.
6.838586002441262e-05 -1.948845208329179e-06  0.
7.658946127181425e-05 -1.9543140584099233e-06  0.
8.479486023104548e-05 -1.953505942702225e-06  0.
9.299999999999996e-05 -1.9536420836185133e-06  0.
</DataArray>
<DataArray type="Float64" Name="Nodal_sigma_xx" NumberOfComponents="1" format="ascii" >
0.00010018521092225953 
0.00010018521092225953 
0.00010018521092225953 
0.00010018521092225959 
0.0001027406865693753 
0.000105751812275719 
0.0001057508702141882 
0.00010273974450784445 
0.00010018521092225947 
0.00010018521092225948 
0.00010018521092225952 
0.0001001852109222595 
0.00010018521092225953 
0.00010018521092225953 
0.00010018521092225953 
0.00010018521092225959 
0.0001027406865693753 
0.000105751812275719 
0.0001057508702141882 
0.00010273974450784445 
0.00010018521092225947 
0.00010018521092225948 
0.00010018521092225952 
0.0001001852109222595 
</DataArray>
<DataArray type="Float64" Name="Nodal_sigma_yy" NumberOfComponents="1" format="ascii" >
1.830695884615073e-05 
7.801895252161031e-06 
-1.1306422862782123e-06 
4.010036156083638e-08 
-5.280495564930918e-07 
4.992968866319759e-07 
4.950210356309631e-07 
-5.030791889999698e-07 
-1.2926585826463956e-07 
1.9050462012240086e-08 
-2.8657994246732355e-09 
8.263697591951e-10 
1.830695884615073e-05 
7.801895252161031e-06 
-1.1306422862782123e-06 
4.010036156083638e-08 
-5.280495564930918e-07 
4.992968866319759e-07 
4.950210356309631e-07 
-5.030791889999698e-07 
-1.2926585826463956e-07 
1.9050462012240086e-08 
-2.8657994246732355e-09 
8.263697591951e-10 
</DataArray>
<DataArray type="Float64" Name="Nodal_sigma_xy" NumberOfComponents="1" format="ascii" >
-6.3527471044072525e-21 
-3.1763735522036263e-21 
-2.0381730293306602e-21 
-1.6543612251060553e-24 
4.061456807635366e-21 
3.8722004684226474e-21 
1.6074768864804912e-20 
2.0117032497289633e-21 
-1.6288220236934806e-20 
2.0361257573145914e-20 
2.4433674523897608e-20 
0.0 
-6.3527471044072525e-21 
-3.1763735522036263e-21 
-2.0381730293306602e-21 
-1.6543612251060553e-24 
4.061456807635366e-21 
3.8722004684226474e-21 
1.6074768864804912e-20 
2.0117032497289633e-21 
-1.6288220236934806e-20 
2.0361257573145914e-20 
2.4433674523897608e-20 
0.0 
</DataArray>
</PointData>
<CellData>
</CellData>
<Points>
<DataArray type="Float64" Name="Points" NumberOfComponents="3" format="ascii">
0.0 0.0 0.0
9.0 0.0 0.0
18.0 0.0 0.0
27.0 0.0 0.0
36.0 0.0 0.0
45.0 0.5 0.0
55.0 0.5 0.0
64.0 0.0 0.0
73.0 0.0 0.0
82.0 0.0 0.0
91.0 0.0 0.0
100.0 0.0 0.0
0.0 10.0 0.0
9.0 10.0 0.0
18.0 10.0 0.0
27.0 10.0 0.0
36.0 10.0 0.0
45.0 9.5 0.0
55.0 9.5 0.0
64.0 10.0 0.0
73.0 10.0 0.0
82.0 10.0 0.0
91.0 10.0 0.0
100.0 10.0 0.0
</DataArray>
</Points>
<Cells>
<DataArray type="Int64" Name="connectivity" format="ascii">
0 1 13 12 
1 2 14 13 
2 3 15 14 
3 4 16 15 
4 5 17 16 
5 6 18 17 
6 7 19 18 
7 8 20 19 
8 9 21 20 
9 10 22 21 
10 11 23 22 
</DataArray>
<DataArray type="Int64" Name="offsets" format="ascii">
4
8
12
16
20
24
28
32
36
40
44
</DataArray>
<DataArray type="UInt8" Name="types" format="ascii" RangeMin="9" RangeMax="9">
9
9
9
9
9
9
9
9
9
9
9
</DataArray>
</Cells>
</Piece>
</UnstructuredGrid>
</VTKFile>
