<?xml version="1.0"?>
<VTKFile type="UnstructuredGrid" version="0.1" byte_order="LittleEndian" compressor="vtkZLibDataCompressor">
<UnstructuredGrid>
<Piece NumberOfPoints="24" NumberOfCells="11">
<PointData>
<DataArray type="Float64" Name="displacement" NumberOfComponents="3" format="ascii" >
0.0 0.0  0.
-7.389793336350641e-182 -8.778321383626717e-182  0.
-1.2143736820245002e-181 -2.805297342971326e-181  0.
-1.463838043060541e-181 -5.309354702804792e-181  0.
-1.5438549135815351e-181 -8.076997047883885e-181  0.
-1.3697005483299595e-181 -1.0656364403501816e-180  0.
0.00015000000000000001 -5.834016898092124e-06  0.
0.00015000000000000004 -5.834016898092131e-06  0.
0.00015000000000000004 -5.8340168980921306e-06  0.
0.00015000000000000004 -5.8340168980921365e-06  0.
0.00015000000000000004 -5.834016898092145e-06  0.
0.00015000000000000004 -5.834016898092143e-06  0.
0.0 0.0  0.
7.083846478476251e-182 -8.70771826257878e-182  0.
1.1484774357130932e-181 -2.78646984402521e-181  0.
1.3697005483299595e-181 -5.290527203858675e-181  0.
1.4120624209587212e-181 -8.020514551045536e-181  0.
1.261442429389791e-181 -1.0694019401394048e-180  0.
0.00015000000000000004 -5.834016898092122e-06  0.
0.00015000000000000004 -5.834016898092132e-06  0.
0.00015000000000000004 -5.8340168980921306e-06  0.
0.00015000000000000004 -5.834016898092137e-06  0.
0.00015000000000000004 -5.834016898092144e-06  0.
0.00015000000000000004 -5.834016898092143e-06  0.
</DataArray>
<DataArray type="Float64" Name="Nodal_sigma_xx" NumberOfComponents="1" format="ascii" >
-2.0844012588582296e-182 
-1.98885572467655e-182 
-1.4595837524332896e-182 
-8.347662460083635e-183 
4.557325193148702e-183 
7.775701081373795e-183 
7.781965290039805e-20 
7.629255023106939e-20 
-2.2906540039929996e-21 
-7.635513346643332e-22 
7.635513346643332e-22 
1.5271026693286663e-21 
-2.0844012588582296e-182 
-1.98885572467655e-182 
-1.4595837524332896e-182 
-8.347662460083635e-183 
4.557325193148702e-183 
7.775701081373795e-183 
7.781965290039805e-20 
7.629255023106939e-20 
-2.2906540039929996e-21 
-7.635513346643332e-22 
7.635513346643332e-22 
1.5271026693286663e-21 
</DataArray>
<DataArray type="Float64" Name="Nodal_sigma_yy" NumberOfComponents="1" format="ascii" >
-5.05385588697831e-183 
5.2801479416185e-184 
1.120145670472063e-182 
2.7456769296419362e-182 
2.640706139896598e-182 
7.096806069616245e-183 
3.517529998732729e-20 
3.1612060425560405e-20 
-5.344859342650332e-21 
-1.7816197808834442e-21 
1.7816197808834442e-21 
3.5632395617668884e-21 
-5.05385588697831e-183 
5.2801479416185e-184 
1.120145670472063e-182 
2.7456769296419362e-182 
2.640706139896598e-182 
7.096806069616245e-183 
3.517529998732729e-20 
3.1612060425560405e-20 
-5.344859342650332e-21 
-1.7816197808834442e-21 
1.7816197808834442e-21 
3.5632395617668884e-21 
</DataArray>
<DataArray type="Float64" Name="Nodal_sigma_xy" NumberOfComponents="1" format="ascii" >
-9.529409856541223e-182 
-9.187457418417318e-182 
-7.962965967194212e-182 
-6.607727995511958e-182 
-2.7829214939382723e-182 
2.8459302452618057e-183 
2.1450064323411834e-20 
2.1450064323411834e-20 
-3.2578190279011556e-20 
-6.515638055802311e-20 
-3.2578190279011556e-20 
0.0 
-9.529409856541223e-182 
-9.187457418417318e-182 
-7.962965967194212e-182 
-6.607727995511958e-182 
-2.7829214939382723e-182 
2.8459302452618057e-183 
2.1450064323411834e-20 
2.1450064323411834e-20 
-3.2578190279011556e-20 
-6.515638055802311e-20 
-3.2578190279011556e-20 
0.0 
</DataArray>
</PointData>
<CellData>
</CellData>
<Points>
<DataArray type="Float64" Name="Points" NumberOfComponents="3" format="ascii">
0.0 0.0 0.0
9.0 0.0 0.0
18.0 0.0 0.0
27.0 0.0 0.0
36.0 0.0 0.0
45.0 0.5 0.0
55.0 0.5 0.0
64.0 0.0 0.0
73.0 0.0 0.0
82.0 0.0 0.0
91.0 0.0 0.0
100.0 0.0 0.0
0.0 10.0 0.0
9.0 10.0 0.0
18.0 10.0 0.0
27.0 10.0 0.0
36.0 10.0 0.0
45.0 9.5 0.0
55.0 9.5 0.0
64.0 10.0 0.0
73.0 10.0 0.0
82.0 10.0 0.0
91.0 10.0 0.0
100.0 10.0 0.0
</DataArray>
</Points>
<Cells>
<DataArray type="Int64" Name="connectivity" format="ascii">
0 1 13 12 
1 2 14 13 
2 3 15 14 
3 4 16 15 
4 5 17 16 
5 6 18 17 
6 7 19 18 
7 8 20 19 
8 9 21 20 
9 10 22 21 
10 11 23 22 
</DataArray>
<DataArray type="Int64" Name="offsets" format="ascii">
4
8
12
16
20
24
28
32
36
40
44
</DataArray>
<DataArray type="UInt8" Name="types" format="ascii" RangeMin="9" RangeMax="9">
9
9
9
9
9
9
9
9
9
9
9
</DataArray>
</Cells>
</Piece>
</UnstructuredGrid>
</VTKFile>
