<?xml version="1.0"?>
<VTKFile type="UnstructuredGrid" version="0.1" byte_order="LittleEndian" compressor="vtkZLibDataCompressor">
<UnstructuredGrid>
<Piece NumberOfPoints="24" NumberOfCells="11">
<PointData>
<DataArray type="Float64" Name="displacement" NumberOfComponents="3" format="ascii" >
0.0 0.0  0.
2.821182672189085e-06 8.360906960323267e-07  0.
5.917498666371503e-06 7.133086125752906e-07  0.
8.972438559090266e-06 7.288193218672625e-07  0.
1.2039224672442739e-05 7.440210364404312e-07  0.
1.5262203367982638e-05 7.159695188572312e-07  0.
1.902885495991794e-05 7.159122219710688e-07  0.
2.225194999681376e-05 7.443648777772029e-07  0.
2.531797015309454e-05 7.264896659000107e-07  0.
2.837811129090375e-05 7.291229780360844e-07  0.
3.143911804695229e-05 7.287338613352888e-07  0.
3.45e-05 7.287994147005674e-07  0.
0.0 0.0  0.
2.8211826721890938e-06 -8.360906960323359e-07  0.
5.917498666371518e-06 -7.133086125753217e-07  0.
8.972438559090285e-06 -7.288193218673236e-07  0.
1.2039224672442759e-05 -7.440210364405269e-07  0.
1.526220336798266e-05 -7.159695188573652e-07  0.
1.9028854959917957e-05 -7.159122219712485e-07  0.
2.2251949996813777e-05 -7.443648777774156e-07  0.
2.5317970153094553e-05 -7.264896659002548e-07  0.
2.8378111290903757e-05 -7.291229780363484e-07  0.
3.1439118046952294e-05 -7.287338613355638e-07  0.
3.45e-05 -7.287994147008491e-07  0.
</DataArray>
<DataArray type="Float64" Name="Nodal_sigma_xx" NumberOfComponents="1" format="ascii" >
3.7373576551359677e-05 
3.737357655135967e-05 
3.7373576551359677e-05 
3.737357655135968e-05 
3.835449023308119e-05 
4.043080004149006e-05 
4.0430820626070045e-05 
3.83545108176612e-05 
3.737357655135969e-05 
3.7373576551359656e-05 
3.737357655135973e-05 
3.737357655135981e-05 
3.7373576551359677e-05 
3.737357655135967e-05 
3.7373576551359677e-05 
3.737357655135968e-05 
3.835449023308119e-05 
4.043080004149006e-05 
4.0430820626070045e-05 
3.83545108176612e-05 
3.737357655135969e-05 
3.7373576551359656e-05 
3.737357655135973e-05 
3.737357655135981e-05 
</DataArray>
<DataArray type="Float64" Name="Nodal_sigma_yy" NumberOfComponents="1" format="ascii" >
6.829437246930725e-06 
2.910159155857614e-06 
-4.197157804625372e-07 
9.377926136484155e-10 
-1.0397875660504516e-07 
1.367509759886063e-07 
1.351417224028812e-07 
-9.467694079334621e-08 
-6.224294839415191e-08 
9.173009330005391e-09 
-1.3799142951582478e-09 
3.9790622964657124e-10 
6.829437246930725e-06 
2.910159155857614e-06 
-4.197157804625372e-07 
9.377926136484155e-10 
-1.0397875660504516e-07 
1.367509759886063e-07 
1.351417224028812e-07 
-9.467694079334621e-08 
-6.224294839415191e-08 
9.173009330005391e-09 
-1.3799142951582478e-09 
3.9790622964657124e-10 
</DataArray>
<DataArray type="Float64" Name="Nodal_sigma_xy" NumberOfComponents="1" format="ascii" >
-2.2234614865425384e-21 
-1.6278914455043585e-21 
-7.709323308994218e-22 
-2.5477162866633252e-22 
1.0190865146653301e-21 
-5.089325653960536e-21 
-7.127498683291197e-21 
-5.092123850876438e-21 
-6.109245811586955e-21 
-4.072365251963409e-21 
-1.0180880818165844e-21 
2.0361373895419555e-21 
-2.2234614865425384e-21 
-1.6278914455043585e-21 
-7.709323308994218e-22 
-2.5477162866633252e-22 
1.0190865146653301e-21 
-5.089325653960536e-21 
-7.127498683291197e-21 
-5.092123850876438e-21 
-6.109245811586955e-21 
-4.072365251963409e-21 
-1.0180880818165844e-21 
2.0361373895419555e-21 
</DataArray>
</PointData>
<CellData>
</CellData>
<Points>
<DataArray type="Float64" Name="Points" NumberOfComponents="3" format="ascii">
0.0 0.0 0.0
9.0 0.0 0.0
18.0 0.0 0.0
27.0 0.0 0.0
36.0 0.0 0.0
45.0 0.5 0.0
55.0 0.5 0.0
64.0 0.0 0.0
73.0 0.0 0.0
82.0 0.0 0.0
91.0 0.0 0.0
100.0 0.0 0.0
0.0 10.0 0.0
9.0 10.0 0.0
18.0 10.0 0.0
27.0 10.0 0.0
36.0 10.0 0.0
45.0 9.5 0.0
55.0 9.5 0.0
64.0 10.0 0.0
73.0 10.0 0.0
82.0 10.0 0.0
91.0 10.0 0.0
100.0 10.0 0.0
</DataArray>
</Points>
<Cells>
<DataArray type="Int64" Name="connectivity" format="ascii">
0 1 13 12 
1 2 14 13 
2 3 15 14 
3 4 16 15 
4 5 17 16 
5 6 18 17 
6 7 19 18 
7 8 20 19 
8 9 21 20 
9 10 22 21 
10 11 23 22 
</DataArray>
<DataArray type="Int64" Name="offsets" format="ascii">
4
8
12
16
20
24
28
32
36
40
44
</DataArray>
<DataArray type="UInt8" Name="types" format="ascii" RangeMin="9" RangeMax="9">
9
9
9
9
9
9
9
9
9
9
9
</DataArray>
</Cells>
</Piece>
</UnstructuredGrid>
</VTKFile>
