<?xml version="1.0"?>
<VTKFile type="UnstructuredGrid" version="0.1" byte_order="LittleEndian" compressor="vtkZLibDataCompressor">
<UnstructuredGrid>
<Piece NumberOfPoints="24" NumberOfCells="11">
<PointData>
<DataArray type="Float64" Name="displacement" NumberOfComponents="3" format="ascii" >
0.0 0.0  0.
7.688797789621933e-06 2.2786990221010933e-06  0.
1.6127336770799978e-05 1.9437734595899202e-06  0.
2.4453778639855962e-05 1.988076879562416e-06  0.
3.280797107778323e-05 2.015719378885829e-06  0.
4.177572127672903e-05 2.1545634446053614e-06  0.
5.365414797005325e-05 2.1545106646634682e-06  0.
6.262287712593635e-05 2.0167524458009743e-06  0.
7.097501362067184e-05 1.9817135895574752e-06  0.
7.931562610749664e-05 1.986875388254693e-06  0.
8.765793537270135e-05 1.986112644616468e-06  0.
9.599999999999995e-05 1.986241141831376e-06  0.
0.0 0.0  0.
7.688797789621933e-06 -2.2786990221010933e-06  0.
1.6127336770799978e-05 -1.94377345958992e-06  0.
2.4453778639855962e-05 -1.9880768795624144e-06  0.
3.280797107778322e-05 -2.0157193788858214e-06  0.
4.177572127672903e-05 -2.1545634446053504e-06  0.
5.365414797005325e-05 -2.1545106646634568e-06  0.
6.262287712593636e-05 -2.0167524458009807e-06  0.
7.097501362067187e-05 -1.9817135895575176e-06  0.
7.931562610749665e-05 -1.9868753882547753e-06  0.
8.765793537270138e-05 -1.9861126446165867e-06  0.
9.599999999999995e-05 -1.9862411418315274e-06  0.
</DataArray>
<DataArray type="Float64" Name="Nodal_sigma_xx" NumberOfComponents="1" format="ascii" >
0.00010185704523008671 
0.0001018570452300867 
0.0001018570452300867 
0.00010185704523008672 
0.00010318294443857136 
0.00010512607103477556 
0.00010512308556749239 
0.00010317995897128818 
0.00010185704523008663 
0.00010185704523008668 
0.00010185704523008674 
0.00010185704523008664 
0.00010185704523008671 
0.0001018570452300867 
0.0001018570452300867 
0.00010185704523008672 
0.00010318294443857136 
0.00010512607103477556 
0.00010512308556749239 
0.00010317995897128818 
0.00010185704523008663 
0.00010185704523008668 
0.00010185704523008674 
0.00010185704523008664 
</DataArray>
<DataArray type="Float64" Name="Nodal_sigma_yy" NumberOfComponents="1" format="ascii" >
1.8612370789805358e-05 
7.932296836014586e-06 
-1.150952158772455e-06 
5.0565551352671555e-08 
-9.760897095328624e-07 
8.260105830901772e-07 
8.225219377711889e-07 
-9.502914147981823e-07 
-1.220081605711482e-07 
1.7980864083885607e-08 
-2.7048976509688218e-09 
7.799728065903421e-10 
1.8612370789805358e-05 
7.932296836014586e-06 
-1.150952158772455e-06 
5.0565551352671555e-08 
-9.760897095328624e-07 
8.260105830901772e-07 
8.225219377711889e-07 
-9.502914147981823e-07 
-1.220081605711482e-07 
1.7980864083885607e-08 
-2.7048976509688218e-09 
7.799728065903421e-10 
</DataArray>
<DataArray type="Float64" Name="Nodal_sigma_xy" NumberOfComponents="1" format="ascii" >
0.0 
1.522012327097571e-21 
3.560185356428231e-21 
4.073037336211108e-21 
4.033332666808563e-21 
-1.2568718602059155e-21 
-9.250745299918375e-21 
-1.4139825390981455e-20 
-8.14442031119711e-21 
0.0 
-8.144549558167822e-21 
-1.6289099116335644e-20 
0.0 
1.522012327097571e-21 
3.560185356428231e-21 
4.073037336211108e-21 
4.033332666808563e-21 
-1.2568718602059155e-21 
-9.250745299918375e-21 
-1.4139825390981455e-20 
-8.14442031119711e-21 
0.0 
-8.144549558167822e-21 
-1.6289099116335644e-20 
</DataArray>
</PointData>
<CellData>
</CellData>
<Points>
<DataArray type="Float64" Name="Points" NumberOfComponents="3" format="ascii">
0.0 0.0 0.0
9.0 0.0 0.0
18.0 0.0 0.0
27.0 0.0 0.0
36.0 0.0 0.0
45.0 0.5 0.0
55.0 0.5 0.0
64.0 0.0 0.0
73.0 0.0 0.0
82.0 0.0 0.0
91.0 0.0 0.0
100.0 0.0 0.0
0.0 10.0 0.0
9.0 10.0 0.0
18.0 10.0 0.0
27.0 10.0 0.0
36.0 10.0 0.0
45.0 9.5 0.0
55.0 9.5 0.0
64.0 10.0 0.0
73.0 10.0 0.0
82.0 10.0 0.0
91.0 10.0 0.0
100.0 10.0 0.0
</DataArray>
</Points>
<Cells>
<DataArray type="Int64" Name="connectivity" format="ascii">
0 1 13 12 
1 2 14 13 
2 3 15 14 
3 4 16 15 
4 5 17 16 
5 6 18 17 
6 7 19 18 
7 8 20 19 
8 9 21 20 
9 10 22 21 
10 11 23 22 
</DataArray>
<DataArray type="Int64" Name="offsets" format="ascii">
4
8
12
16
20
24
28
32
36
40
44
</DataArray>
<DataArray type="UInt8" Name="types" format="ascii" RangeMin="9" RangeMax="9">
9
9
9
9
9
9
9
9
9
9
9
</DataArray>
</Cells>
</Piece>
</UnstructuredGrid>
</VTKFile>
