<?xml version="1.0"?>
<VTKFile type="UnstructuredGrid" version="0.1" byte_order="LittleEndian" compressor="vtkZLibDataCompressor">
<UnstructuredGrid>
<Piece NumberOfPoints="24" NumberOfCells="11">
<PointData>
<DataArray type="Float64" Name="displacement" NumberOfComponents="3" format="ascii" >
0.0 0.0  0.
4.476397271731831e-06 1.3266793702955457e-06  0.
9.389209244165168e-06 1.1314455203372276e-06  0.
1.4237300177012776e-05 1.1588840824807106e-06  0.
1.9097873566735988e-05 1.1638074455702761e-06  0.
2.7437225441038872e-05 3.8826466675463116e-06  0.
9.822393239375774e-05 3.88584457443645e-06  0.
0.00010657062668897857 1.164913320763351e-06  0.
0.00011143016903245171 1.1551051244171382e-06  0.
0.00011628648553625994 1.1565500327431934e-06  0.
0.00012114327700806914 1.1563365229381404e-06  0.
0.0001259999999999999 1.156372492317534e-06  0.
0.0 0.0  0.
4.476397271731832e-06 -1.3266793702955457e-06  0.
9.389209244165163e-06 -1.131445520337223e-06  0.
1.4237300177012773e-05 -1.1588840824807013e-06  0.
1.9097873566735988e-05 -1.1638074455702632e-06  0.
2.743722544103889e-05 -3.882646667546317e-06  0.
9.822393239375773e-05 -3.885844574436422e-06  0.
0.00010657062668897857 -1.1649133207632763e-06  0.
0.00011143016903245173 -1.155105124417078e-06  0.
0.00011628648553625997 -1.1565500327431586e-06  0.
0.00012114327700806915 -1.1563365229381322e-06  0.
0.0001259999999999999 -1.156372492317537e-06  0.
</DataArray>
<DataArray type="Float64" Name="Nodal_sigma_xx" NumberOfComponents="1" format="ascii" >
5.930074060325822e-05 
5.930074060325822e-05 
5.930074060325822e-05 
5.9300740603258236e-05 
6.071175102075e-05 
5.353287830655878e-05 
5.3532867133733905e-05 
6.071173984792512e-05 
5.930074060325826e-05 
5.9300740603258284e-05 
5.930074060325821e-05 
5.930074060325813e-05 
5.930074060325822e-05 
5.930074060325822e-05 
5.930074060325822e-05 
5.9300740603258236e-05 
6.071175102075e-05 
5.353287830655878e-05 
5.3532867133733905e-05 
6.071173984792512e-05 
5.930074060325826e-05 
5.9300740603258284e-05 
5.930074060325821e-05 
5.930074060325813e-05 
</DataArray>
<DataArray type="Float64" Name="Nodal_sigma_yy" NumberOfComponents="1" format="ascii" >
1.0835708936610162e-05 
4.61897530838365e-06 
-6.758061889920962e-07 
6.833316585293822e-08 
-5.864203488781806e-06 
1.4609772331149025e-06 
1.4618828548394217e-06 
-5.848610598537762e-06 
-3.415294113495765e-08 
5.033264904113989e-09 
-7.571641914558074e-10 
2.183326526876124e-10 
1.0835708936610162e-05 
4.61897530838365e-06 
-6.758061889920962e-07 
6.833316585293822e-08 
-5.864203488781806e-06 
1.4609772331149025e-06 
1.4618828548394217e-06 
-5.848610598537762e-06 
-3.415294113495765e-08 
5.033264904113989e-09 
-7.571641914558074e-10 
2.183326526876124e-10 
</DataArray>
<DataArray type="Float64" Name="Nodal_sigma_xy" NumberOfComponents="1" format="ascii" >
1.376428539288238e-21 
1.2043749718772083e-21 
-2.028246861980024e-21 
-1.5263550253134743e-21 
-4.642551187953868e-22 
7.722700370462849e-22 
1.6760016916471204e-20 
1.8578062967634725e-20 
2.850629826980244e-20 
3.665049886114934e-20 
1.2216824337251733e-20 
0.0 
1.376428539288238e-21 
1.2043749718772083e-21 
-2.028246861980024e-21 
-1.5263550253134743e-21 
-4.642551187953868e-22 
7.722700370462849e-22 
1.6760016916471204e-20 
1.8578062967634725e-20 
2.850629826980244e-20 
3.665049886114934e-20 
1.2216824337251733e-20 
0.0 
</DataArray>
</PointData>
<CellData>
</CellData>
<Points>
<DataArray type="Float64" Name="Points" NumberOfComponents="3" format="ascii">
0.0 0.0 0.0
9.0 0.0 0.0
18.0 0.0 0.0
27.0 0.0 0.0
36.0 0.0 0.0
45.0 0.5 0.0
55.0 0.5 0.0
64.0 0.0 0.0
73.0 0.0 0.0
82.0 0.0 0.0
91.0 0.0 0.0
100.0 0.0 0.0
0.0 10.0 0.0
9.0 10.0 0.0
18.0 10.0 0.0
27.0 10.0 0.0
36.0 10.0 0.0
45.0 9.5 0.0
55.0 9.5 0.0
64.0 10.0 0.0
73.0 10.0 0.0
82.0 10.0 0.0
91.0 10.0 0.0
100.0 10.0 0.0
</DataArray>
</Points>
<Cells>
<DataArray type="Int64" Name="connectivity" format="ascii">
0 1 13 12 
1 2 14 13 
2 3 15 14 
3 4 16 15 
4 5 17 16 
5 6 18 17 
6 7 19 18 
7 8 20 19 
8 9 21 20 
9 10 22 21 
10 11 23 22 
</DataArray>
<DataArray type="Int64" Name="offsets" format="ascii">
4
8
12
16
20
24
28
32
36
40
44
</DataArray>
<DataArray type="UInt8" Name="types" format="ascii" RangeMin="9" RangeMax="9">
9
9
9
9
9
9
9
9
9
9
9
</DataArray>
</Cells>
</Piece>
</UnstructuredGrid>
</VTKFile>
