<?xml version="1.0"?>
<VTKFile type="UnstructuredGrid" version="0.1" byte_order="LittleEndian" compressor="vtkZLibDataCompressor">
<UnstructuredGrid>
<Piece NumberOfPoints="24" NumberOfCells="11">
<PointData>
<DataArray type="Float64" Name="displacement" NumberOfComponents="3" format="ascii" >
0.0 0.0  0.
5.519705228196045e-06 1.6358296226719493e-06  0.
1.157771478203122e-05 1.3956038072125421e-06  0.
1.755477109387228e-05 1.4259508471316337e-06  0.
2.3555004793909736e-05 1.4556933321661127e-06  0.
2.9860832676487805e-05 1.400809928199004e-06  0.
3.7230368399839485e-05 1.4006978255956717e-06  0.
4.3536423906809575e-05 1.4563660652163928e-06  0.
4.953515899518501e-05 1.4213928245871254e-06  0.
5.5522391656116076e-05 1.4265449570272846e-06  0.
6.151131791795017e-05 1.4257836417431313e-06  0.
6.750000000000003e-05 1.4259118983273792e-06  0.
0.0 0.0  0.
5.519705228196052e-06 -1.6358296226719578e-06  0.
1.1577714782031232e-05 -1.3956038072125703e-06  0.
1.75547710938723e-05 -1.4259508471316891e-06  0.
2.3555004793909753e-05 -1.4556933321661985e-06  0.
2.9860832676487818e-05 -1.4008099281991214e-06  0.
3.72303683998395e-05 -1.4006978255958206e-06  0.
4.353642390680958e-05 -1.4563660652165583e-06  0.
4.953515899518501e-05 -1.4213928245873084e-06  0.
5.5522391656116076e-05 -1.4265449570274766e-06  0.
6.151131791795019e-05 -1.4257836417433223e-06  0.
6.750000000000003e-05 -1.4259118983275677e-06  0.
</DataArray>
<DataArray type="Float64" Name="Nodal_sigma_xx" NumberOfComponents="1" format="ascii" >
7.312221499179074e-05 
7.312221499179074e-05 
7.312221499179072e-05 
7.312221499179074e-05 
7.504139393428935e-05 
7.910373921161102e-05 
7.910377948578927e-05 
7.50414342084676e-05 
7.312221499179071e-05 
7.31222149917907e-05 
7.312221499179074e-05 
7.312221499179075e-05 
7.312221499179074e-05 
7.312221499179074e-05 
7.312221499179072e-05 
7.312221499179074e-05 
7.504139393428935e-05 
7.910373921161102e-05 
7.910377948578927e-05 
7.50414342084676e-05 
7.312221499179071e-05 
7.31222149917907e-05 
7.312221499179074e-05 
7.312221499179075e-05 
</DataArray>
<DataArray type="Float64" Name="Nodal_sigma_yy" NumberOfComponents="1" format="ascii" >
1.3361942439647088e-05 
5.693789652764907e-06 
-8.211830487310523e-07 
1.8348116353948755e-09 
-2.0343669770552684e-07 
2.67556257369008e-07 
2.644077177447718e-07 
-1.8523749285654808e-07 
-1.2177968164074371e-07 
1.7947192167413895e-08 
-2.6998323166474024e-09 
7.785121883395094e-10 
1.3361942439647088e-05 
5.693789652764907e-06 
-8.211830487310523e-07 
1.8348116353948755e-09 
-2.0343669770552684e-07 
2.67556257369008e-07 
2.644077177447718e-07 
-1.8523749285654808e-07 
-1.2177968164074371e-07 
1.7947192167413895e-08 
-2.6998323166474024e-09 
7.785121883395094e-10 
</DataArray>
<DataArray type="Float64" Name="Nodal_sigma_xy" NumberOfComponents="1" format="ascii" >
-2.752857078576476e-21 
-3.917527381051139e-21 
-4.577617509868455e-21 
-3.053950821545778e-21 
-1.017432153440224e-21 
-3.054209315487201e-21 
-3.050900593036989e-21 
-8.142765949972004e-21 
-2.036291193437102e-20 
0.0 
2.0361386820116626e-20 
1.6289099116335644e-20 
-2.752857078576476e-21 
-3.917527381051139e-21 
-4.577617509868455e-21 
-3.053950821545778e-21 
-1.017432153440224e-21 
-3.054209315487201e-21 
-3.050900593036989e-21 
-8.142765949972004e-21 
-2.036291193437102e-20 
0.0 
2.0361386820116626e-20 
1.6289099116335644e-20 
</DataArray>
</PointData>
<CellData>
</CellData>
<Points>
<DataArray type="Float64" Name="Points" NumberOfComponents="3" format="ascii">
0.0 0.0 0.0
9.0 0.0 0.0
18.0 0.0 0.0
27.0 0.0 0.0
36.0 0.0 0.0
45.0 0.5 0.0
55.0 0.5 0.0
64.0 0.0 0.0
73.0 0.0 0.0
82.0 0.0 0.0
91.0 0.0 0.0
100.0 0.0 0.0
0.0 10.0 0.0
9.0 10.0 0.0
18.0 10.0 0.0
27.0 10.0 0.0
36.0 10.0 0.0
45.0 9.5 0.0
55.0 9.5 0.0
64.0 10.0 0.0
73.0 10.0 0.0
82.0 10.0 0.0
91.0 10.0 0.0
100.0 10.0 0.0
</DataArray>
</Points>
<Cells>
<DataArray type="Int64" Name="connectivity" format="ascii">
0 1 13 12 
1 2 14 13 
2 3 15 14 
3 4 16 15 
4 5 17 16 
5 6 18 17 
6 7 19 18 
7 8 20 19 
8 9 21 20 
9 10 22 21 
10 11 23 22 
</DataArray>
<DataArray type="Int64" Name="offsets" format="ascii">
4
8
12
16
20
24
28
32
36
40
44
</DataArray>
<DataArray type="UInt8" Name="types" format="ascii" RangeMin="9" RangeMax="9">
9
9
9
9
9
9
9
9
9
9
9
</DataArray>
</Cells>
</Piece>
</UnstructuredGrid>
</VTKFile>
