<?xml version="1.0"?>
<VTKFile type="UnstructuredGrid" version="0.1" byte_order="LittleEndian" compressor="vtkZLibDataCompressor">
<UnstructuredGrid>
<Piece NumberOfPoints="24" NumberOfCells="11">
<PointData>
<DataArray type="Float64" Name="displacement" NumberOfComponents="3" format="ascii" >
0.0 0.0  0.
2.4532023236426405e-07 7.27035387854153e-08  0.
5.145651014236014e-07 6.202683587609663e-08  0.
7.802120486165347e-07 6.337559320581674e-08  0.
1.0468891019515304e-06 6.469748142955e-08  0.
1.3271481189550002e-06 6.225821903098783e-08  0.
1.6546830399928526e-06 6.225323669303413e-08  0.
1.9349521736359677e-06 6.472738067615495e-08  0.
2.201562622008212e-06 6.317301442594696e-08  0.
2.467661851382929e-06 6.340199808994025e-08  0.
2.733836351908892e-06 6.336816185508047e-08  0.
3e-06 6.337386214771055e-08  0.
0.0 0.0  0.
2.453202323642731e-07 -7.27035387854249e-08  0.
5.145651014236177e-07 -6.202683587613048e-08  0.
7.802120486165565e-07 -6.33755932058864e-08  0.
1.046889101951556e-06 -6.469748142966361e-08  0.
1.3271481189550248e-06 -6.225821903115083e-08  0.
1.6546830399928766e-06 -6.225323669325425e-08  0.
1.9349521736359906e-06 -6.472738067642068e-08  0.
2.2015626220082297e-06 -6.317301442625013e-08  0.
2.467661851382941e-06 -6.340199809027154e-08  0.
2.7338363519088984e-06 -6.336816185542869e-08  0.
3e-06 -6.337386214806463e-08  0.
</DataArray>
<DataArray type="Float64" Name="Nodal_sigma_xx" NumberOfComponents="1" format="ascii" >
3.2498762218573626e-06 
3.249876221857363e-06 
3.2498762218573634e-06 
3.2498762218573626e-06 
3.3351730637461887e-06 
3.5157217427382637e-06 
3.515723532701741e-06 
3.335174853709669e-06 
3.2498762218573676e-06 
3.2498762218573676e-06 
3.2498762218573693e-06 
3.2498762218573698e-06 
3.2498762218573626e-06 
3.249876221857363e-06 
3.2498762218573634e-06 
3.2498762218573626e-06 
3.3351730637461887e-06 
3.5157217427382637e-06 
3.515723532701741e-06 
3.335174853709669e-06 
3.2498762218573676e-06 
3.2498762218573676e-06 
3.2498762218573693e-06 
3.2498762218573698e-06 
</DataArray>
<DataArray type="Float64" Name="Nodal_sigma_yy" NumberOfComponents="1" format="ascii" >
5.938641084287585e-07 
2.530573179006624e-07 
-3.649702438804643e-08 
8.15471837951231e-11 
-9.041631009134159e-09 
1.189138921640124e-08 
1.175145412198949e-08 
-8.23277746029171e-09 
-5.412430295143886e-09 
7.976529852184447e-10 
-1.1999254740589594e-10 
3.460054170577814e-11 
5.938641084287585e-07 
2.530573179006624e-07 
-3.649702438804643e-08 
8.15471837951231e-11 
-9.041631009134159e-09 
1.189138921640124e-08 
1.175145412198949e-08 
-8.23277746029171e-09 
-5.412430295143886e-09 
7.976529852184447e-10 
-1.1999254740589594e-10 
3.460054170577814e-11 
</DataArray>
<DataArray type="Float64" Name="Nodal_sigma_xy" NumberOfComponents="1" format="ascii" >
-3.083729323597687e-21 
-3.0688400725717327e-21 
-3.244977844257243e-21 
-3.181491732243798e-21 
-3.435901469392139e-21 
-5.281134620844805e-21 
-4.5811330274718055e-21 
-2.0995911898127225e-21 
-2.0997721355717185e-21 
-1.5271095045050022e-21 
-2.545179814863114e-22 
0.0 
-3.083729323597687e-21 
-3.0688400725717327e-21 
-3.244977844257243e-21 
-3.181491732243798e-21 
-3.435901469392139e-21 
-5.281134620844805e-21 
-4.5811330274718055e-21 
-2.0995911898127225e-21 
-2.0997721355717185e-21 
-1.5271095045050022e-21 
-2.545179814863114e-22 
0.0 
</DataArray>
</PointData>
<CellData>
</CellData>
<Points>
<DataArray type="Float64" Name="Points" NumberOfComponents="3" format="ascii">
0.0 0.0 0.0
9.0 0.0 0.0
18.0 0.0 0.0
27.0 0.0 0.0
36.0 0.0 0.0
45.0 0.5 0.0
55.0 0.5 0.0
64.0 0.0 0.0
73.0 0.0 0.0
82.0 0.0 0.0
91.0 0.0 0.0
100.0 0.0 0.0
0.0 10.0 0.0
9.0 10.0 0.0
18.0 10.0 0.0
27.0 10.0 0.0
36.0 10.0 0.0
45.0 9.5 0.0
55.0 9.5 0.0
64.0 10.0 0.0
73.0 10.0 0.0
82.0 10.0 0.0
91.0 10.0 0.0
100.0 10.0 0.0
</DataArray>
</Points>
<Cells>
<DataArray type="Int64" Name="connectivity" format="ascii">
0 1 13 12 
1 2 14 13 
2 3 15 14 
3 4 16 15 
4 5 17 16 
5 6 18 17 
6 7 19 18 
7 8 20 19 
8 9 21 20 
9 10 22 21 
10 11 23 22 
</DataArray>
<DataArray type="Int64" Name="offsets" format="ascii">
4
8
12
16
20
24
28
32
36
40
44
</DataArray>
<DataArray type="UInt8" Name="types" format="ascii" RangeMin="9" RangeMax="9">
9
9
9
9
9
9
9
9
9
9
9
</DataArray>
</Cells>
</Piece>
</UnstructuredGrid>
</VTKFile>
