<?xml version="1.0"?>
<VTKFile type="UnstructuredGrid" version="0.1" byte_order="LittleEndian" compressor="vtkZLibDataCompressor">
<UnstructuredGrid>
<Piece NumberOfPoints="24" NumberOfCells="11">
<PointData>
<DataArray type="Float64" Name="displacement" NumberOfComponents="3" format="ascii" >
0.0 0.0  0.
5.151724879649645e-06 1.5267743144938225e-06  0.
1.0805867129895813e-05 1.3025635533983844e-06  0.
1.6384453020947474e-05 1.3308874573228847e-06  0.
2.1984671140982434e-05 1.3586471100217488e-06  0.
2.7870110498055302e-05 1.3074225996524658e-06  0.
3.474834383985021e-05 1.3073179705560466e-06  0.
4.063399564635562e-05 1.3592749942020663e-06  0.
4.6232815062172696e-05 1.3266333029480965e-06  0.
5.182089887904169e-05 1.3314419598922543e-06  0.
5.7410563390086856e-05 1.3307313989603825e-06  0.
6.300000000000004e-05 1.330851105105681e-06  0.
0.0 0.0  0.
5.151724879649647e-06 -1.5267743144938252e-06  0.
1.0805867129895812e-05 -1.3025635533983876e-06  0.
1.638445302094747e-05 -1.3308874573228838e-06  0.
2.198467114098243e-05 -1.3586471100217425e-06  0.
2.7870110498055295e-05 -1.3074225996524518e-06  0.
3.47483438398502e-05 -1.3073179705560133e-06  0.
4.063399564635561e-05 -1.3592749942020226e-06  0.
4.623281506217269e-05 -1.326633302948042e-06  0.
5.1820898879041684e-05 -1.3314419598921893e-06  0.
5.741056339008684e-05 -1.3307313989603064e-06  0.
6.300000000000004e-05 -1.3308511051056032e-06  0.
</DataArray>
<DataArray type="Float64" Name="Nodal_sigma_xx" NumberOfComponents="1" format="ascii" >
6.824740065900468e-05 
6.82474006590047e-05 
6.824740065900468e-05 
6.824740065900471e-05 
7.00386343386701e-05 
7.383015659750366e-05 
7.383019418673664e-05 
7.003867192790307e-05 
6.824740065900468e-05 
6.824740065900466e-05 
6.824740065900467e-05 
6.824740065900464e-05 
6.824740065900468e-05 
6.82474006590047e-05 
6.824740065900468e-05 
6.824740065900471e-05 
7.00386343386701e-05 
7.383015659750366e-05 
7.383019418673664e-05 
7.003867192790307e-05 
6.824740065900468e-05 
6.824740065900466e-05 
6.824740065900467e-05 
6.824740065900464e-05 
</DataArray>
<DataArray type="Float64" Name="Nodal_sigma_yy" NumberOfComponents="1" format="ascii" >
1.2471146277003935e-05 
5.314203675913909e-06 
-7.664375121489826e-07 
1.7124908597093377e-09 
-1.898742511918093e-07 
2.4971917354441974e-07 
2.467805365617781e-07 
-1.728883266661252e-07 
-1.1366103619802272e-07 
1.675071268959274e-08 
-2.5198434955418672e-09 
7.266113757666015e-10 
1.2471146277003935e-05 
5.314203675913909e-06 
-7.664375121489826e-07 
1.7124908597093377e-09 
-1.898742511918093e-07 
2.4971917354441974e-07 
2.467805365617781e-07 
-1.728883266661252e-07 
-1.1366103619802272e-07 
1.675071268959274e-08 
-2.5198434955418672e-09 
7.266113757666015e-10 
</DataArray>
<DataArray type="Float64" Name="Nodal_sigma_xy" NumberOfComponents="1" format="ascii" >
-3.1763735522036263e-21 
-2.355810384551023e-21 
-7.676236084492097e-22 
-2.034864306880448e-21 
-3.053950821545778e-21 
2.035119569647603e-21 
-3.0570042812288353e-21 
-2.0381730293306602e-21 
4.073037336211108e-21 
-1.2216837261948804e-20 
-3.257821115736836e-20 
-4.072274779083911e-20 
-3.1763735522036263e-21 
-2.355810384551023e-21 
-7.676236084492097e-22 
-2.034864306880448e-21 
-3.053950821545778e-21 
2.035119569647603e-21 
-3.0570042812288353e-21 
-2.0381730293306602e-21 
4.073037336211108e-21 
-1.2216837261948804e-20 
-3.257821115736836e-20 
-4.072274779083911e-20 
</DataArray>
</PointData>
<CellData>
</CellData>
<Points>
<DataArray type="Float64" Name="Points" NumberOfComponents="3" format="ascii">
0.0 0.0 0.0
9.0 0.0 0.0
18.0 0.0 0.0
27.0 0.0 0.0
36.0 0.0 0.0
45.0 0.5 0.0
55.0 0.5 0.0
64.0 0.0 0.0
73.0 0.0 0.0
82.0 0.0 0.0
91.0 0.0 0.0
100.0 0.0 0.0
0.0 10.0 0.0
9.0 10.0 0.0
18.0 10.0 0.0
27.0 10.0 0.0
36.0 10.0 0.0
45.0 9.5 0.0
55.0 9.5 0.0
64.0 10.0 0.0
73.0 10.0 0.0
82.0 10.0 0.0
91.0 10.0 0.0
100.0 10.0 0.0
</DataArray>
</Points>
<Cells>
<DataArray type="Int64" Name="connectivity" format="ascii">
0 1 13 12 
1 2 14 13 
2 3 15 14 
3 4 16 15 
4 5 17 16 
5 6 18 17 
6 7 19 18 
7 8 20 19 
8 9 21 20 
9 10 22 21 
10 11 23 22 
</DataArray>
<DataArray type="Int64" Name="offsets" format="ascii">
4
8
12
16
20
24
28
32
36
40
44
</DataArray>
<DataArray type="UInt8" Name="types" format="ascii" RangeMin="9" RangeMax="9">
9
9
9
9
9
9
9
9
9
9
9
</DataArray>
</Cells>
</Piece>
</UnstructuredGrid>
</VTKFile>
