<?xml version="1.0"?>
<VTKFile type="UnstructuredGrid" version="0.1" byte_order="LittleEndian" compressor="vtkZLibDataCompressor">
<UnstructuredGrid>
<Piece NumberOfPoints="24" NumberOfCells="11">
<PointData>
<DataArray type="Float64" Name="displacement" NumberOfComponents="3" format="ascii" >
0.0 0.0  0.
7.671551826984896e-06 2.2733957461295848e-06  0.
1.6091751758638523e-05 1.9409395306226077e-06  0.
2.439624642790644e-05 1.9734191399443504e-06  0.
3.275461043867342e-05 2.080600786360826e-06  0.
4.2617979111431e-05 2.554913347303003e-06  0.
5.7311427542943297e-05 2.5551763396060427e-06  0.
6.717742210135988e-05 2.0818665354441804e-06  0.
7.553381196576277e-05 1.9670352336202833e-06  0.
8.385243470610722e-05 1.983951769366658e-06  0.
9.21766182235763e-05 1.981452063202568e-06  0.
0.00010049999999999994 1.981873181471021e-06  0.
0.0 0.0  0.
7.67155182698491e-06 -2.2733957461296004e-06  0.
1.6091751758638554e-05 -1.9409395306226674e-06  0.
2.439624642790648e-05 -1.973419139944473e-06  0.
3.2754610438673465e-05 -2.0806007863610327e-06  0.
4.2617979111431054e-05 -2.554913347303315e-06  0.
5.731142754294336e-05 -2.5551763396064874e-06  0.
6.717742210135995e-05 -2.081866535444749e-06  0.
7.553381196576282e-05 -1.9670352336209575e-06  0.
8.385243470610726e-05 -1.983951769367416e-06  0.
9.217661822357633e-05 -1.9814520632034025e-06  0.
0.00010049999999999994 -1.9818731814718885e-06  0.
</DataArray>
<DataArray type="Float64" Name="Nodal_sigma_xx" NumberOfComponents="1" format="ascii" >
0.00010162968862039406 
0.00010162968862039406 
0.00010162968862039405 
0.00010162968862039408 
0.00010215835449612124 
0.00010321399632993533 
0.00010321129730143675 
0.00010215565546762266 
0.00010162968862039409 
0.00010162968862039409 
0.00010162968862039409 
0.00010162968862039405 
0.00010162968862039406 
0.00010162968862039406 
0.00010162968862039405 
0.00010162968862039408 
0.00010215835449612124 
0.00010321399632993533 
0.00010321129730143675 
0.00010215565546762266 
0.00010162968862039409 
0.00010162968862039409 
0.00010162968862039409 
0.00010162968862039405 
</DataArray>
<DataArray type="Float64" Name="Nodal_sigma_yy" NumberOfComponents="1" format="ascii" >
1.8573210000722798e-05 
7.908707085213807e-06 
-1.1075727193876023e-06 
-2.26719145503585e-07 
-1.5939048600449062e-06 
1.523365237725632e-06 
1.5216160975034673e-06 
-1.5675322571887463e-06 
-3.998519761648602e-07 
5.8927894687140387e-08 
-8.864642053429454e-09 
2.5561705596404067e-09 
1.8573210000722798e-05 
7.908707085213807e-06 
-1.1075727193876023e-06 
-2.26719145503585e-07 
-1.5939048600449062e-06 
1.523365237725632e-06 
1.5216160975034673e-06 
-1.5675322571887463e-06 
-3.998519761648602e-07 
5.8927894687140387e-08 
-8.864642053429454e-09 
2.5561705596404067e-09 
</DataArray>
<DataArray type="Float64" Name="Nodal_sigma_xy" NumberOfComponents="1" format="ascii" >
-8.258571235729428e-21 
-8.192396786725186e-21 
-1.0108147085397998e-21 
-1.017432153440224e-21 
-1.4366472878820985e-20 
-1.2856512831742253e-20 
-6.2125981517163345e-21 
4.486627642487622e-21 
1.6283877538718903e-20 
-1.0339757656912846e-25 
-2.4433622825109323e-20 
-3.257819823267129e-20 
-8.258571235729428e-21 
-8.192396786725186e-21 
-1.0108147085397998e-21 
-1.017432153440224e-21 
-1.4366472878820985e-20 
-1.2856512831742253e-20 
-6.2125981517163345e-21 
4.486627642487622e-21 
1.6283877538718903e-20 
-1.0339757656912846e-25 
-2.4433622825109323e-20 
-3.257819823267129e-20 
</DataArray>
</PointData>
<CellData>
</CellData>
<Points>
<DataArray type="Float64" Name="Points" NumberOfComponents="3" format="ascii">
0.0 0.0 0.0
9.0 0.0 0.0
18.0 0.0 0.0
27.0 0.0 0.0
36.0 0.0 0.0
45.0 0.5 0.0
55.0 0.5 0.0
64.0 0.0 0.0
73.0 0.0 0.0
82.0 0.0 0.0
91.0 0.0 0.0
100.0 0.0 0.0
0.0 10.0 0.0
9.0 10.0 0.0
18.0 10.0 0.0
27.0 10.0 0.0
36.0 10.0 0.0
45.0 9.5 0.0
55.0 9.5 0.0
64.0 10.0 0.0
73.0 10.0 0.0
82.0 10.0 0.0
91.0 10.0 0.0
100.0 10.0 0.0
</DataArray>
</Points>
<Cells>
<DataArray type="Int64" Name="connectivity" format="ascii">
0 1 13 12 
1 2 14 13 
2 3 15 14 
3 4 16 15 
4 5 17 16 
5 6 18 17 
6 7 19 18 
7 8 20 19 
8 9 21 20 
9 10 22 21 
10 11 23 22 
</DataArray>
<DataArray type="Int64" Name="offsets" format="ascii">
4
8
12
16
20
24
28
32
36
40
44
</DataArray>
<DataArray type="UInt8" Name="types" format="ascii" RangeMin="9" RangeMax="9">
9
9
9
9
9
9
9
9
9
9
9
</DataArray>
</Cells>
</Piece>
</UnstructuredGrid>
</VTKFile>
