<?xml version="1.0"?>
<VTKFile type="UnstructuredGrid" version="0.1" byte_order="LittleEndian" compressor="vtkZLibDataCompressor">
<UnstructuredGrid>
<Piece NumberOfPoints="24" NumberOfCells="11">
<PointData>
<DataArray type="Float64" Name="displacement" NumberOfComponents="3" format="ascii" >
0.0 0.0  0.
3.4344832530997555e-06 1.0178495429958754e-06  0.
7.203911419930526e-06 8.683757022655665e-07  0.
1.0922968680631628e-05 8.87258304881874e-07  0.
1.4656447427321596e-05 9.057647400144187e-07  0.
1.8580073665370172e-05 8.716150664348623e-07  0.
2.3165562559900108e-05 8.71545313703875e-07  0.
2.7089330430903716e-05 9.061833294678583e-07  0.
3.08218767081151e-05 8.844222019651887e-07  0.
3.4547265919361095e-05 8.876279732612716e-07  0.
3.827370892672454e-05 8.871542659733437e-07  0.
4.200000000000001e-05 8.872340700702086e-07  0.
0.0 0.0  0.
3.4344832530997687e-06 -1.0178495429958888e-06  0.
7.20391141993055e-06 -8.683757022656139e-07  0.
1.0922968680631657e-05 -8.872583048819707e-07  0.
1.465644742732163e-05 -9.057647400145741e-07  0.
1.8580073665370202e-05 -8.716150664350819e-07  0.
2.3165562559900135e-05 -8.715453137041642e-07  0.
2.708933043090374e-05 -9.061833294681994e-07  0.
3.0821876708115124e-05 -8.8442220196557e-07  0.
3.4547265919361116e-05 -8.876279732616904e-07  0.
3.8273708926724546e-05 -8.871542659737816e-07  0.
4.200000000000001e-05 -8.872340700706476e-07  0.
</DataArray>
<DataArray type="Float64" Name="Nodal_sigma_xx" NumberOfComponents="1" format="ascii" >
4.5498267106003105e-05 
4.54982671060031e-05 
4.54982671060031e-05 
4.5498267106003105e-05 
4.669242289244668e-05 
4.922010439833575e-05 
4.922012945782442e-05 
4.669244795193537e-05 
4.549826710600311e-05 
4.549826710600308e-05 
4.5498267106003145e-05 
4.54982671060032e-05 
4.5498267106003105e-05 
4.54982671060031e-05 
4.54982671060031e-05 
4.5498267106003105e-05 
4.669242289244668e-05 
4.922010439833575e-05 
4.922012945782442e-05 
4.669244795193537e-05 
4.549826710600311e-05 
4.549826710600308e-05 
4.5498267106003145e-05 
4.54982671060032e-05 
</DataArray>
<DataArray type="Float64" Name="Nodal_sigma_yy" NumberOfComponents="1" format="ascii" >
8.31409751800262e-06 
3.542802450609267e-06 
-5.109583414326579e-07 
1.1416605731344763e-09 
-1.2658283412788162e-07 
1.664794490296109e-07 
1.6452035770785433e-07 
-1.1525888444407641e-07 
-7.577402413201176e-08 
1.1167141793053356e-08 
-1.6798956636807433e-09 
4.844075838861879e-10 
8.31409751800262e-06 
3.542802450609267e-06 
-5.109583414326579e-07 
1.1416605731344763e-09 
-1.2658283412788162e-07 
1.664794490296109e-07 
1.6452035770785433e-07 
-1.1525888444407641e-07 
-7.577402413201176e-08 
1.1167141793053356e-08 
-1.6798956636807433e-09 
4.844075838861879e-10 
</DataArray>
<DataArray type="Float64" Name="Nodal_sigma_xy" NumberOfComponents="1" format="ascii" >
-4.129285617864714e-21 
-2.064642808932357e-21 
2.5477162866633252e-22 
-3.817438526932223e-21 
-7.122852254694121e-21 
-9.159051036547165e-21 
-8.146581966782259e-21 
8.142765949972004e-21 
1.6289461007853636e-20 
1.0180809732331953e-20 
8.144562482864893e-21 
8.144549558167822e-21 
-4.129285617864714e-21 
-2.064642808932357e-21 
2.5477162866633252e-22 
-3.817438526932223e-21 
-7.122852254694121e-21 
-9.159051036547165e-21 
-8.146581966782259e-21 
8.142765949972004e-21 
1.6289461007853636e-20 
1.0180809732331953e-20 
8.144562482864893e-21 
8.144549558167822e-21 
</DataArray>
</PointData>
<CellData>
</CellData>
<Points>
<DataArray type="Float64" Name="Points" NumberOfComponents="3" format="ascii">
0.0 0.0 0.0
9.0 0.0 0.0
18.0 0.0 0.0
27.0 0.0 0.0
36.0 0.0 0.0
45.0 0.5 0.0
55.0 0.5 0.0
64.0 0.0 0.0
73.0 0.0 0.0
82.0 0.0 0.0
91.0 0.0 0.0
100.0 0.0 0.0
0.0 10.0 0.0
9.0 10.0 0.0
18.0 10.0 0.0
27.0 10.0 0.0
36.0 10.0 0.0
45.0 9.5 0.0
55.0 9.5 0.0
64.0 10.0 0.0
73.0 10.0 0.0
82.0 10.0 0.0
91.0 10.0 0.0
100.0 10.0 0.0
</DataArray>
</Points>
<Cells>
<DataArray type="Int64" Name="connectivity" format="ascii">
0 1 13 12 
1 2 14 13 
2 3 15 14 
3 4 16 15 
4 5 17 16 
5 6 18 17 
6 7 19 18 
7 8 20 19 
8 9 21 20 
9 10 22 21 
10 11 23 22 
</DataArray>
<DataArray type="Int64" Name="offsets" format="ascii">
4
8
12
16
20
24
28
32
36
40
44
</DataArray>
<DataArray type="UInt8" Name="types" format="ascii" RangeMin="9" RangeMax="9">
9
9
9
9
9
9
9
9
9
9
9
</DataArray>
</Cells>
</Piece>
</UnstructuredGrid>
</VTKFile>
