<?xml version="1.0"?>
<VTKFile type="UnstructuredGrid" version="0.1" byte_order="LittleEndian" compressor="vtkZLibDataCompressor">
<UnstructuredGrid>
<Piece NumberOfPoints="24" NumberOfCells="11">
<PointData>
<DataArray type="Float64" Name="displacement" NumberOfComponents="3" format="ascii" >
0.0 0.0  0.
3.066502904553356e-06 9.087942348177488e-07  0.
6.4320637677951185e-06 7.753354484514107e-07  0.
9.752650607706818e-06 7.921949150731273e-07  0.
1.3086113774394289e-05 8.087185178700579e-07  0.
1.658935148693766e-05 7.782277378883266e-07  0.
2.0683537999910818e-05 7.78165458664249e-07  0.
2.4186902170449754e-05 8.090922584535344e-07  0.
2.751953277510277e-05 7.896626803261618e-07  0.
3.08457731422867e-05 7.925249761262499e-07  0.
3.41729543988612e-05 7.921020231906071e-07  0.
3.7500000000000003e-05 7.921732768485229e-07  0.
0.0 0.0  0.
3.0665029045533613e-06 -9.087942348177544e-07  0.
6.432063767795126e-06 -7.753354484514289e-07  0.
9.75265060770683e-06 -7.921949150731627e-07  0.
1.3086113774394302e-05 -8.087185178701141e-07  0.
1.6589351486937673e-05 -7.782277378884092e-07  0.
2.0683537999910828e-05 -7.781654586643573e-07  0.
2.418690217044976e-05 -8.090922584536601e-07  0.
2.7519532775102778e-05 -7.89662680326301e-07  0.
3.0845773142286703e-05 -7.925249761263945e-07  0.
3.4172954398861195e-05 -7.921020231907555e-07  0.
3.7500000000000003e-05 -7.921732768486688e-07  0.
</DataArray>
<DataArray type="Float64" Name="Nodal_sigma_xx" NumberOfComponents="1" format="ascii" >
4.062345277321705e-05 
4.062345277321705e-05 
4.062345277321705e-05 
4.062345277321705e-05 
4.1689663296827396e-05 
4.3946521784228355e-05 
4.394654415877181e-05 
4.168968567137085e-05 
4.062345277321705e-05 
4.062345277321705e-05 
4.062345277321705e-05 
4.0623452773217065e-05 
4.062345277321705e-05 
4.062345277321705e-05 
4.062345277321705e-05 
4.062345277321705e-05 
4.1689663296827396e-05 
4.3946521784228355e-05 
4.394654415877181e-05 
4.168968567137085e-05 
4.062345277321705e-05 
4.062345277321705e-05 
4.062345277321705e-05 
4.0623452773217065e-05 
</DataArray>
<DataArray type="Float64" Name="Nodal_sigma_yy" NumberOfComponents="1" format="ascii" >
7.423301355359484e-06 
3.1632164737582774e-06 
-4.5621280485058566e-07 
1.019339797439621e-09 
-1.1302038761417678e-07 
1.486423652050167e-07 
1.4689317652487418e-07 
-1.0290971825364846e-07 
-6.765537868930093e-08 
9.9706623152322e-09 
-1.4999068425862195e-09 
4.325067712980334e-10 
7.423301355359484e-06 
3.1632164737582774e-06 
-4.5621280485058566e-07 
1.019339797439621e-09 
-1.1302038761417678e-07 
1.486423652050167e-07 
1.4689317652487418e-07 
-1.0290971825364846e-07 
-6.765537868930093e-08 
9.9706623152322e-09 
-1.4999068425862195e-09 
4.325067712980334e-10 
</DataArray>
<DataArray type="Float64" Name="Nodal_sigma_xy" NumberOfComponents="1" format="ascii" >
-2.6469779601696886e-21 
-2.9712327602904754e-21 
-1.6477437802056311e-21 
3.053950821545778e-21 
4.073037336211108e-21 
3.0552239042072856e-21 
1.0203595973268375e-21 
-3.050642099095566e-21 
4.073450926517385e-21 
-1.0339757656912846e-25 
-1.2216824337251733e-20 
-1.2216811412554662e-20 
-2.6469779601696886e-21 
-2.9712327602904754e-21 
-1.6477437802056311e-21 
3.053950821545778e-21 
4.073037336211108e-21 
3.0552239042072856e-21 
1.0203595973268375e-21 
-3.050642099095566e-21 
4.073450926517385e-21 
-1.0339757656912846e-25 
-1.2216824337251733e-20 
-1.2216811412554662e-20 
</DataArray>
</PointData>
<CellData>
</CellData>
<Points>
<DataArray type="Float64" Name="Points" NumberOfComponents="3" format="ascii">
0.0 0.0 0.0
9.0 0.0 0.0
18.0 0.0 0.0
27.0 0.0 0.0
36.0 0.0 0.0
45.0 0.5 0.0
55.0 0.5 0.0
64.0 0.0 0.0
73.0 0.0 0.0
82.0 0.0 0.0
91.0 0.0 0.0
100.0 0.0 0.0
0.0 10.0 0.0
9.0 10.0 0.0
18.0 10.0 0.0
27.0 10.0 0.0
36.0 10.0 0.0
45.0 9.5 0.0
55.0 9.5 0.0
64.0 10.0 0.0
73.0 10.0 0.0
82.0 10.0 0.0
91.0 10.0 0.0
100.0 10.0 0.0
</DataArray>
</Points>
<Cells>
<DataArray type="Int64" Name="connectivity" format="ascii">
0 1 13 12 
1 2 14 13 
2 3 15 14 
3 4 16 15 
4 5 17 16 
5 6 18 17 
6 7 19 18 
7 8 20 19 
8 9 21 20 
9 10 22 21 
10 11 23 22 
</DataArray>
<DataArray type="Int64" Name="offsets" format="ascii">
4
8
12
16
20
24
28
32
36
40
44
</DataArray>
<DataArray type="UInt8" Name="types" format="ascii" RangeMin="9" RangeMax="9">
9
9
9
9
9
9
9
9
9
9
9
</DataArray>
</Cells>
</Piece>
</UnstructuredGrid>
</VTKFile>
