<?xml version="1.0"?>
<VTKFile type="UnstructuredGrid" version="0.1" byte_order="LittleEndian" compressor="vtkZLibDataCompressor">
<UnstructuredGrid>
<Piece NumberOfPoints="24" NumberOfCells="11">
<PointData>
<DataArray type="Float64" Name="displacement" NumberOfComponents="3" format="ascii" >
0.0 0.0  0.
7.243034277210289e-06 2.1460196043029395e-06  0.
1.5194089574427844e-05 1.8356100518706632e-06  0.
2.302809341461857e-05 1.8425528638629779e-06  0.
3.0965930721162784e-05 2.104807927601865e-06  0.
4.272538673925395e-05 3.6115931307496463e-06  0.
6.623147934836006e-05 3.6129701857135708e-06  0.
7.799765508992674e-05 2.1064280914725383e-06  0.
8.593376812884737e-05 1.8364623765235255e-06  0.
9.378109153910346e-05 1.8762327578978192e-06  0.
0.00010164148820681007 1.8703560069508027e-06  0.
0.00010949999999999991 1.8713460461876694e-06  0.
0.0 0.0  0.
7.243034277210301e-06 -2.146019604302952e-06  0.
1.5194089574427864e-05 -1.8356100518707056e-06  0.
2.3028093414618597e-05 -1.8425528638630668e-06  0.
3.096593072116281e-05 -2.1048079276020047e-06  0.
4.272538673925399e-05 -3.6115931307498505e-06  0.
6.623147934836007e-05 -3.6129701857138376e-06  0.
7.799765508992675e-05 -2.1064280914728314e-06  0.
8.593376812884739e-05 -1.8364623765238507e-06  0.
9.378109153910346e-05 -1.8762327578981546e-06  0.
0.00010164148820681007 -1.8703560069511305e-06  0.
0.00010949999999999991 -1.8713460461879902e-06  0.
</DataArray>
<DataArray type="Float64" Name="Nodal_sigma_xx" NumberOfComponents="1" format="ascii" >
9.595510044626946e-05 
9.595510044626946e-05 
9.595510044626944e-05 
9.595510044626946e-05 
9.698488110277447e-05 
9.721630958839104e-05 
9.721335640452654e-05 
9.698192791891011e-05 
9.59551004462695e-05 
9.595510044626936e-05 
9.59551004462695e-05 
9.595510044626957e-05 
9.595510044626946e-05 
9.595510044626946e-05 
9.595510044626944e-05 
9.595510044626946e-05 
9.698488110277447e-05 
9.721630958839104e-05 
9.721335640452654e-05 
9.698192791891011e-05 
9.59551004462695e-05 
9.595510044626936e-05 
9.59551004462695e-05 
9.595510044626957e-05 
</DataArray>
<DataArray type="Float64" Name="Nodal_sigma_yy" NumberOfComponents="1" format="ascii" >
1.7540981462654534e-05 
7.455211946881545e-06 
-9.631578961446208e-07 
-7.748674307123452e-07 
-3.063126890913268e-06 
2.9812566395209707e-06 
2.982613198257894e-06 
-3.0372081153159414e-06 
-9.400426791704796e-07 
1.3853810735373947e-07 
-2.0840566916096475e-08 
6.009497425455822e-09 
1.7540981462654534e-05 
7.455211946881545e-06 
-9.631578961446208e-07 
-7.748674307123452e-07 
-3.063126890913268e-06 
2.9812566395209707e-06 
2.982613198257894e-06 
-3.0372081153159414e-06 
-9.400426791704796e-07 
1.3853810735373947e-07 
-2.0840566916096475e-08 
6.009497425455822e-09 
</DataArray>
<DataArray type="Float64" Name="Nodal_sigma_xy" NumberOfComponents="1" format="ascii" >
-4.446922973085077e-21 
-1.4690727678941772e-21 
-1.790846026177305e-21 
-2.545234744825666e-21 
-3.705769144237564e-22 
3.55972006733367e-22 
-4.302709203165285e-21 
-5.029258124322408e-21 
8.14442031119711e-21 
1.628884062239422e-20 
1.628894401997079e-20 
1.628904741754736e-20 
-4.446922973085077e-21 
-1.4690727678941772e-21 
-1.790846026177305e-21 
-2.545234744825666e-21 
-3.705769144237564e-22 
3.55972006733367e-22 
-4.302709203165285e-21 
-5.029258124322408e-21 
8.14442031119711e-21 
1.628884062239422e-20 
1.628894401997079e-20 
1.628904741754736e-20 
</DataArray>
</PointData>
<CellData>
</CellData>
<Points>
<DataArray type="Float64" Name="Points" NumberOfComponents="3" format="ascii">
0.0 0.0 0.0
9.0 0.0 0.0
18.0 0.0 0.0
27.0 0.0 0.0
36.0 0.0 0.0
45.0 0.5 0.0
55.0 0.5 0.0
64.0 0.0 0.0
73.0 0.0 0.0
82.0 0.0 0.0
91.0 0.0 0.0
100.0 0.0 0.0
0.0 10.0 0.0
9.0 10.0 0.0
18.0 10.0 0.0
27.0 10.0 0.0
36.0 10.0 0.0
45.0 9.5 0.0
55.0 9.5 0.0
64.0 10.0 0.0
73.0 10.0 0.0
82.0 10.0 0.0
91.0 10.0 0.0
100.0 10.0 0.0
</DataArray>
</Points>
<Cells>
<DataArray type="Int64" Name="connectivity" format="ascii">
0 1 13 12 
1 2 14 13 
2 3 15 14 
3 4 16 15 
4 5 17 16 
5 6 18 17 
6 7 19 18 
7 8 20 19 
8 9 21 20 
9 10 22 21 
10 11 23 22 
</DataArray>
<DataArray type="Int64" Name="offsets" format="ascii">
4
8
12
16
20
24
28
32
36
40
44
</DataArray>
<DataArray type="UInt8" Name="types" format="ascii" RangeMin="9" RangeMax="9">
9
9
9
9
9
9
9
9
9
9
9
</DataArray>
</Cells>
</Piece>
</UnstructuredGrid>
</VTKFile>
