<?xml version="1.0"?>
<VTKFile type="UnstructuredGrid" version="0.1" byte_order="LittleEndian" compressor="vtkZLibDataCompressor">
<UnstructuredGrid>
<Piece NumberOfPoints="24" NumberOfCells="11">
<PointData>
<DataArray type="Float64" Name="displacement" NumberOfComponents="3" format="ascii" >
0.0 0.0  0.
1.2266011618213396e-06 3.635176939270966e-07  0.
2.572825507118042e-06 3.1013417938055306e-07  0.
3.90106024308272e-06 3.168779660292271e-07  0.
5.2344455097577074e-06 3.234874071479839e-07  0.
6.635740594775055e-06 3.1129109515527456e-07  0.
8.273415199964317e-06 3.1126618346562347e-07  0.
9.67476086817989e-06 3.236369033813212e-07  0.
1.10078131100411e-05 3.1586507213035715e-07  0.
1.2338309256914673e-05 3.170099904503803e-07  0.
1.3669181759544474e-05 3.168408092761145e-07  0.
1.4999999999999999e-05 3.1686931073927653e-07  0.
0.0 0.0  0.
1.2266011618213476e-06 -3.635176939271049e-07  0.
2.5728255071180565e-06 -3.1013417938058287e-07  0.
3.9010602430827396e-06 -3.1687796602928907e-07  0.
5.23444550975773e-06 -3.234874071480848e-07  0.
6.635740594775077e-06 -3.112910951554194e-07  0.
8.273415199964339e-06 -3.112661834658188e-07  0.
9.67476086817991e-06 -3.2363690338155647e-07  0.
1.1007813110041115e-05 -3.1586507213062783e-07  0.
1.2338309256914684e-05 -3.1700999045067745e-07  0.
1.3669181759544482e-05 -3.168408092764301e-07  0.
1.4999999999999999e-05 -3.1686931073960015e-07  0.
</DataArray>
<DataArray type="Float64" Name="Nodal_sigma_xx" NumberOfComponents="1" format="ascii" >
1.6249381109286822e-05 
1.6249381109286825e-05 
1.6249381109286825e-05 
1.6249381109286822e-05 
1.6675865318730954e-05 
1.757860871369133e-05 
1.7578617663508712e-05 
1.6675874268548343e-05 
1.624938110928683e-05 
1.6249381109286822e-05 
1.624938110928682e-05 
1.6249381109286815e-05 
1.6249381109286822e-05 
1.6249381109286825e-05 
1.6249381109286825e-05 
1.6249381109286822e-05 
1.6675865318730954e-05 
1.757860871369133e-05 
1.7578617663508712e-05 
1.6675874268548343e-05 
1.624938110928683e-05 
1.6249381109286822e-05 
1.624938110928682e-05 
1.6249381109286815e-05 
</DataArray>
<DataArray type="Float64" Name="Nodal_sigma_yy" NumberOfComponents="1" format="ascii" >
2.9693205421437934e-06 
1.265286589503311e-06 
-1.824851219402346e-07 
4.077359189746626e-10 
-4.520815504567376e-08 
5.9456946082005406e-08 
5.875727060994861e-08 
-4.1163887301457224e-08 
-2.7062151475715037e-08 
3.9882649260959295e-09 
-5.999627370339796e-10 
1.7300270851650285e-10 
2.9693205421437934e-06 
1.265286589503311e-06 
-1.824851219402346e-07 
4.077359189746626e-10 
-4.520815504567376e-08 
5.9456946082005406e-08 
5.875727060994861e-08 
-4.1163887301457224e-08 
-2.7062151475715037e-08 
3.9882649260959295e-09 
-5.999627370339796e-10 
1.7300270851650285e-10 
</DataArray>
<DataArray type="Float64" Name="Nodal_sigma_xy" NumberOfComponents="1" format="ascii" >
-2.117582368135751e-21 
-2.266474878395296e-21 
-2.4803010667402535e-21 
-2.0361050777992776e-21 
-1.5278025913854421e-21 
-3.564003796619186e-21 
-2.7996889106201888e-21 
-5.090469489651332e-21 
-7.12657456745061e-21 
-1.0180396142025677e-21 
1.01806546359671e-21 
0.0 
-2.117582368135751e-21 
-2.266474878395296e-21 
-2.4803010667402535e-21 
-2.0361050777992776e-21 
-1.5278025913854421e-21 
-3.564003796619186e-21 
-2.7996889106201888e-21 
-5.090469489651332e-21 
-7.12657456745061e-21 
-1.0180396142025677e-21 
1.01806546359671e-21 
0.0 
</DataArray>
</PointData>
<CellData>
</CellData>
<Points>
<DataArray type="Float64" Name="Points" NumberOfComponents="3" format="ascii">
0.0 0.0 0.0
9.0 0.0 0.0
18.0 0.0 0.0
27.0 0.0 0.0
36.0 0.0 0.0
45.0 0.5 0.0
55.0 0.5 0.0
64.0 0.0 0.0
73.0 0.0 0.0
82.0 0.0 0.0
91.0 0.0 0.0
100.0 0.0 0.0
0.0 10.0 0.0
9.0 10.0 0.0
18.0 10.0 0.0
27.0 10.0 0.0
36.0 10.0 0.0
45.0 9.5 0.0
55.0 9.5 0.0
64.0 10.0 0.0
73.0 10.0 0.0
82.0 10.0 0.0
91.0 10.0 0.0
100.0 10.0 0.0
</DataArray>
</Points>
<Cells>
<DataArray type="Int64" Name="connectivity" format="ascii">
0 1 13 12 
1 2 14 13 
2 3 15 14 
3 4 16 15 
4 5 17 16 
5 6 18 17 
6 7 19 18 
7 8 20 19 
8 9 21 20 
9 10 22 21 
10 11 23 22 
</DataArray>
<DataArray type="Int64" Name="offsets" format="ascii">
4
8
12
16
20
24
28
32
36
40
44
</DataArray>
<DataArray type="UInt8" Name="types" format="ascii" RangeMin="9" RangeMax="9">
9
9
9
9
9
9
9
9
9
9
9
</DataArray>
</Cells>
</Piece>
</UnstructuredGrid>
</VTKFile>
