<?xml version="1.0"?>
<VTKFile type="UnstructuredGrid" version="0.1" byte_order="LittleEndian" compressor="vtkZLibDataCompressor">
<UnstructuredGrid>
<Piece NumberOfPoints="24" NumberOfCells="11">
<PointData>
<DataArray type="Float64" Name="displacement" NumberOfComponents="3" format="ascii" >
0.0 0.0  0.
6.868966506199519e-06 2.0356990859917598e-06  0.
1.4407822839861068e-05 1.7367514045311716e-06  0.
2.1845937361263274e-05 1.7745166097638305e-06  0.
2.931289485464321e-05 1.8115294800289706e-06  0.
3.716014733074035e-05 1.7432301328699097e-06  0.
4.6331125119800216e-05 1.7430906274079906e-06  0.
5.417866086180743e-05 1.8123666589359998e-06  0.
6.164375341623018e-05 1.7688444039306924e-06  0.
6.909453183872218e-05 1.7752559465228866e-06  0.
7.654741785344906e-05 1.774308531947045e-06  0.
8.399999999999998e-05 1.774468140140773e-06  0.
0.0 0.0  0.
6.868966506199525e-06 -2.035699085991767e-06  0.
1.4407822839861072e-05 -1.7367514045311879e-06  0.
2.184593736126328e-05 -1.774516609763857e-06  0.
2.931289485464322e-05 -1.8115294800290134e-06  0.
3.7160147330740364e-05 -1.7432301328699769e-06  0.
4.633112511980023e-05 -1.7430906274080864e-06  0.
5.417866086180743e-05 -1.8123666589361139e-06  0.
6.16437534162302e-05 -1.768844403930824e-06  0.
6.909453183872219e-05 -1.7752559465230376e-06  0.
7.654741785344906e-05 -1.7743085319472054e-06  0.
8.399999999999998e-05 -1.774468140140937e-06  0.
</DataArray>
<DataArray type="Float64" Name="Nodal_sigma_xx" NumberOfComponents="1" format="ascii" >
9.099653421200617e-05 
9.099653421200618e-05 
9.099653421200618e-05 
9.099653421200618e-05 
9.338484578489332e-05 
9.844020879667145e-05 
9.844025891564878e-05 
9.338489590387065e-05 
9.099653421200622e-05 
9.099653421200624e-05 
9.099653421200618e-05 
9.099653421200618e-05 
9.099653421200617e-05 
9.099653421200618e-05 
9.099653421200618e-05 
9.099653421200618e-05 
9.338484578489332e-05 
9.844020879667145e-05 
9.844025891564878e-05 
9.338489590387065e-05 
9.099653421200622e-05 
9.099653421200624e-05 
9.099653421200618e-05 
9.099653421200618e-05 
</DataArray>
<DataArray type="Float64" Name="Nodal_sigma_yy" NumberOfComponents="1" format="ascii" >
1.662819503600524e-05 
7.085604901218539e-06 
-1.0219166828653073e-06 
2.2833211462723406e-09 
-2.5316566825576323e-07 
3.329588980592252e-07 
3.290407154157095e-07 
-2.305177688881791e-07 
-1.5154804826401505e-07 
2.233428358614398e-08 
-3.359791327395368e-09 
9.688151676944489e-10 
1.662819503600524e-05 
7.085604901218539e-06 
-1.0219166828653073e-06 
2.2833211462723406e-09 
-2.5316566825576323e-07 
3.329588980592252e-07 
3.290407154157095e-07 
-2.305177688881791e-07 
-1.5154804826401505e-07 
2.233428358614398e-08 
-3.359791327395368e-09 
9.688151676944489e-10 
</DataArray>
<DataArray type="Float64" Name="Nodal_sigma_xy" NumberOfComponents="1" format="ascii" >
-1.6940658945086007e-21 
-8.470329472543003e-22 
-3.563494078878443e-21 
-3.563494078878443e-21 
-3.050642099095566e-21 
-1.1195191657263388e-20 
-8.144549558167822e-21 
-4.073037336211108e-21 
-1.0181352569608941e-20 
-1.4252838942171512e-20 
-8.14452370877368e-21 
0.0 
-1.6940658945086007e-21 
-8.470329472543003e-22 
-3.563494078878443e-21 
-3.563494078878443e-21 
-3.050642099095566e-21 
-1.1195191657263388e-20 
-8.144549558167822e-21 
-4.073037336211108e-21 
-1.0181352569608941e-20 
-1.4252838942171512e-20 
-8.14452370877368e-21 
0.0 
</DataArray>
</PointData>
<CellData>
</CellData>
<Points>
<DataArray type="Float64" Name="Points" NumberOfComponents="3" format="ascii">
0.0 0.0 0.0
9.0 0.0 0.0
18.0 0.0 0.0
27.0 0.0 0.0
36.0 0.0 0.0
45.0 0.5 0.0
55.0 0.5 0.0
64.0 0.0 0.0
73.0 0.0 0.0
82.0 0.0 0.0
91.0 0.0 0.0
100.0 0.0 0.0
0.0 10.0 0.0
9.0 10.0 0.0
18.0 10.0 0.0
27.0 10.0 0.0
36.0 10.0 0.0
45.0 9.5 0.0
55.0 9.5 0.0
64.0 10.0 0.0
73.0 10.0 0.0
82.0 10.0 0.0
91.0 10.0 0.0
100.0 10.0 0.0
</DataArray>
</Points>
<Cells>
<DataArray type="Int64" Name="connectivity" format="ascii">
0 1 13 12 
1 2 14 13 
2 3 15 14 
3 4 16 15 
4 5 17 16 
5 6 18 17 
6 7 19 18 
7 8 20 19 
8 9 21 20 
9 10 22 21 
10 11 23 22 
</DataArray>
<DataArray type="Int64" Name="offsets" format="ascii">
4
8
12
16
20
24
28
32
36
40
44
</DataArray>
<DataArray type="UInt8" Name="types" format="ascii" RangeMin="9" RangeMax="9">
9
9
9
9
9
9
9
9
9
9
9
</DataArray>
</Cells>
</Piece>
</UnstructuredGrid>
</VTKFile>
