<?xml version="1.0"?>
<VTKFile type="UnstructuredGrid" version="0.1" byte_order="LittleEndian" compressor="vtkZLibDataCompressor">
<UnstructuredGrid>
<Piece NumberOfPoints="24" NumberOfCells="11">
<PointData>
<DataArray type="Float64" Name="displacement" NumberOfComponents="3" format="ascii" >
0.0 0.0  0.
6.6337948041048814e-06 1.9655907089903175e-06  0.
1.3915807943373867e-05 1.680566054129175e-06  0.
2.1092243572808055e-05 1.6918712390482699e-06  0.
2.835273346919133e-05 1.8984845239972015e-06  0.
4.023872018465169e-05 4.371160076219399e-06  0.
7.625963550160646e-05 4.374231129419368e-06  0.
8.815590446053758e-05 1.9002413684375503e-06  0.
9.541490494325029e-05 1.6862529517583587e-06  0.
0.00010260352629630559 1.7177769582145832e-06  0.
0.0001098025101713693 1.7131187495579475e-06  0.
0.00011699999999999989 1.7139035044990943e-06  0.
0.0 0.0  0.
6.633794804104875e-06 -1.96559070899031e-06  0.
1.3915807943373859e-05 -1.6805660541291515e-06  0.
2.1092243572808042e-05 -1.691871239048225e-06  0.
2.835273346919131e-05 -1.8984845239971276e-06  0.
4.0238720184651684e-05 -4.371160076219306e-06  0.
7.625963550160646e-05 -4.374231129419272e-06  0.
8.815590446053759e-05 -1.9002413684374527e-06  0.
9.54149049432503e-05 -1.6862529517582827e-06  0.
0.0001026035262963056 -1.7177769582145208e-06  0.
0.0001098025101713693 -1.7131187495578814e-06  0.
0.00011699999999999989 -1.7139035044990312e-06  0.
</DataArray>
<DataArray type="Float64" Name="Nodal_sigma_xx" NumberOfComponents="1" format="ascii" >
8.78834801591032e-05 
8.78834801591032e-05 
8.788348015910318e-05 
8.788348015910318e-05 
9.003131513566964e-05 
8.881995220155075e-05 
8.881995022213981e-05 
9.003131315625868e-05 
8.788348015910323e-05 
8.788348015910329e-05 
8.788348015910318e-05 
8.78834801591031e-05 
8.78834801591032e-05 
8.78834801591032e-05 
8.788348015910318e-05 
8.788348015910318e-05 
9.003131513566964e-05 
8.881995220155075e-05 
8.881995022213981e-05 
9.003131315625868e-05 
8.788348015910323e-05 
8.788348015910329e-05 
8.788348015910318e-05 
8.78834801591031e-05 
</DataArray>
<DataArray type="Float64" Name="Nodal_sigma_yy" NumberOfComponents="1" format="ascii" >
1.606445073862319e-05 
6.830571320331085e-06 
-8.993549664112088e-07 
-5.9275606490536e-07 
-4.932916732600092e-06 
3.63519508404256e-06 
3.6382331752989814e-06 
-4.9086619223898866e-06 
-7.451251525200245e-07 
1.0981227837755907e-07 
-1.6519282524157574e-08 
4.76343019827183e-09 
1.606445073862319e-05 
6.830571320331085e-06 
-8.993549664112088e-07 
-5.9275606490536e-07 
-4.932916732600092e-06 
3.63519508404256e-06 
3.6382331752989814e-06 
-4.9086619223898866e-06 
-7.451251525200245e-07 
1.0981227837755907e-07 
-1.6519282524157574e-08 
4.76343019827183e-09 
</DataArray>
<DataArray type="Float64" Name="Nodal_sigma_xy" NumberOfComponents="1" format="ascii" >
4.0234064994579266e-21 
4.301339185275744e-21 
3.307481679293281e-21 
1.0178457437465006e-21 
-6.03510974918689e-21 
-7.658193207380784e-21 
7.482520724789835e-21 
9.105604182983729e-21 
0.0 
8.14442031119711e-21 
-1.0339757656912846e-25 
-1.628904741754736e-20 
4.0234064994579266e-21 
4.301339185275744e-21 
3.307481679293281e-21 
1.0178457437465006e-21 
-6.03510974918689e-21 
-7.658193207380784e-21 
7.482520724789835e-21 
9.105604182983729e-21 
0.0 
8.14442031119711e-21 
-1.0339757656912846e-25 
-1.628904741754736e-20 
</DataArray>
</PointData>
<CellData>
</CellData>
<Points>
<DataArray type="Float64" Name="Points" NumberOfComponents="3" format="ascii">
0.0 0.0 0.0
9.0 0.0 0.0
18.0 0.0 0.0
27.0 0.0 0.0
36.0 0.0 0.0
45.0 0.5 0.0
55.0 0.5 0.0
64.0 0.0 0.0
73.0 0.0 0.0
82.0 0.0 0.0
91.0 0.0 0.0
100.0 0.0 0.0
0.0 10.0 0.0
9.0 10.0 0.0
18.0 10.0 0.0
27.0 10.0 0.0
36.0 10.0 0.0
45.0 9.5 0.0
55.0 9.5 0.0
64.0 10.0 0.0
73.0 10.0 0.0
82.0 10.0 0.0
91.0 10.0 0.0
100.0 10.0 0.0
</DataArray>
</Points>
<Cells>
<DataArray type="Int64" Name="connectivity" format="ascii">
0 1 13 12 
1 2 14 13 
2 3 15 14 
3 4 16 15 
4 5 17 16 
5 6 18 17 
6 7 19 18 
7 8 20 19 
8 9 21 20 
9 10 22 21 
10 11 23 22 
</DataArray>
<DataArray type="Int64" Name="offsets" format="ascii">
4
8
12
16
20
24
28
32
36
40
44
</DataArray>
<DataArray type="UInt8" Name="types" format="ascii" RangeMin="9" RangeMax="9">
9
9
9
9
9
9
9
9
9
9
9
</DataArray>
</Cells>
</Piece>
</UnstructuredGrid>
</VTKFile>
