<?xml version="1.0"?>
<VTKFile type="UnstructuredGrid" version="0.1" byte_order="LittleEndian" compressor="vtkZLibDataCompressor">
<UnstructuredGrid>
<Piece NumberOfPoints="24" NumberOfCells="11">
<PointData>
<DataArray type="Float64" Name="displacement" NumberOfComponents="3" format="ascii" >
0.0 0.0  0.
6.25566592528885e-06 1.853940239028211e-06  0.
1.312141008630205e-05 1.581684314840889e-06  0.
1.9895407239721923e-05 1.6160776267492053e-06  0.
2.6695672099764367e-05 1.6497857764549672e-06  0.
3.384227703335284e-05 1.5875845852922644e-06  0.
4.219441751981808e-05 1.587457535675173e-06  0.
4.9341280427717506e-05 1.6505482072453333e-06  0.
5.613984686120966e-05 1.6109118678655112e-06  0.
6.292537721026487e-05 1.6167509512977058e-06  0.
6.971282697367685e-05 1.6158881273089994e-06  0.
7.65e-05 1.6160334847711434e-06  0.
0.0 0.0  0.
6.255665925288854e-06 -1.8539402390282163e-06  0.
1.3121410086302053e-05 -1.581684314840904e-06  0.
1.9895407239721923e-05 -1.6160776267492265e-06  0.
2.6695672099764363e-05 -1.649785776454984e-06  0.
3.384227703335284e-05 -1.5875845852922763e-06  0.
4.219441751981807e-05 -1.587457535675184e-06  0.
4.93412804277175e-05 -1.6505482072453435e-06  0.
5.613984686120965e-05 -1.6109118678655134e-06  0.
6.292537721026487e-05 -1.61675095129769e-06  0.
6.971282697367685e-05 -1.6158881273089793e-06  0.
7.65e-05 -1.6160334847711276e-06  0.
</DataArray>
<DataArray type="Float64" Name="Nodal_sigma_xx" NumberOfComponents="1" format="ascii" >
8.287184365736279e-05 
8.287184365736279e-05 
8.287184365736281e-05 
8.287184365736279e-05 
8.504691312552787e-05 
8.96509044398258e-05 
8.965095008389448e-05 
8.504695876959654e-05 
8.287184365736276e-05 
8.287184365736277e-05 
8.287184365736279e-05 
8.28718436573628e-05 
8.287184365736279e-05 
8.287184365736279e-05 
8.287184365736281e-05 
8.287184365736279e-05 
8.504691312552787e-05 
8.96509044398258e-05 
8.965095008389448e-05 
8.504695876959654e-05 
8.287184365736276e-05 
8.287184365736277e-05 
8.287184365736279e-05 
8.28718436573628e-05 
</DataArray>
<DataArray type="Float64" Name="Nodal_sigma_yy" NumberOfComponents="1" format="ascii" >
1.5143534764933352e-05 
6.452961606466885e-06 
-9.306741218951951e-07 
2.079453186767645e-09 
-2.3056159073293313e-07 
3.0323042501822185e-07 
2.996620801107406e-07 
-2.0993582523743618e-07 
-1.380169725261874e-07 
2.0340151123062982e-08 
-3.0598099588703313e-09 
8.823138134582203e-10 
1.5143534764933352e-05 
6.452961606466885e-06 
-9.306741218951951e-07 
2.079453186767645e-09 
-2.3056159073293313e-07 
3.0323042501822185e-07 
2.996620801107406e-07 
-2.0993582523743618e-07 
-1.380169725261874e-07 
2.0340151123062982e-08 
-3.0598099588703313e-09 
8.823138134582203e-10 
</DataArray>
<DataArray type="Float64" Name="Nodal_sigma_xy" NumberOfComponents="1" format="ascii" >
-4.0234064994579266e-21 
-3.282252670610414e-21 
-4.324500242427229e-21 
1.0190865146653301e-21 
3.308722450212111e-24 
-8.142003392844807e-21 
-1.2218349451506127e-20 
-2.036187795860533e-20 
-8.143386335431419e-21 
1.0180835581726095e-20 
6.108418630974402e-21 
0.0 
-4.0234064994579266e-21 
-3.282252670610414e-21 
-4.324500242427229e-21 
1.0190865146653301e-21 
3.308722450212111e-24 
-8.142003392844807e-21 
-1.2218349451506127e-20 
-2.036187795860533e-20 
-8.143386335431419e-21 
1.0180835581726095e-20 
6.108418630974402e-21 
0.0 
</DataArray>
</PointData>
<CellData>
</CellData>
<Points>
<DataArray type="Float64" Name="Points" NumberOfComponents="3" format="ascii">
0.0 0.0 0.0
9.0 0.0 0.0
18.0 0.0 0.0
27.0 0.0 0.0
36.0 0.0 0.0
45.0 0.5 0.0
55.0 0.5 0.0
64.0 0.0 0.0
73.0 0.0 0.0
82.0 0.0 0.0
91.0 0.0 0.0
100.0 0.0 0.0
0.0 10.0 0.0
9.0 10.0 0.0
18.0 10.0 0.0
27.0 10.0 0.0
36.0 10.0 0.0
45.0 9.5 0.0
55.0 9.5 0.0
64.0 10.0 0.0
73.0 10.0 0.0
82.0 10.0 0.0
91.0 10.0 0.0
100.0 10.0 0.0
</DataArray>
</Points>
<Cells>
<DataArray type="Int64" Name="connectivity" format="ascii">
0 1 13 12 
1 2 14 13 
2 3 15 14 
3 4 16 15 
4 5 17 16 
5 6 18 17 
6 7 19 18 
7 8 20 19 
8 9 21 20 
9 10 22 21 
10 11 23 22 
</DataArray>
<DataArray type="Int64" Name="offsets" format="ascii">
4
8
12
16
20
24
28
32
36
40
44
</DataArray>
<DataArray type="UInt8" Name="types" format="ascii" RangeMin="9" RangeMax="9">
9
9
9
9
9
9
9
9
9
9
9
</DataArray>
</Cells>
</Piece>
</UnstructuredGrid>
</VTKFile>
