<?xml version="1.0"?>
<VTKFile type="UnstructuredGrid" version="0.1" byte_order="LittleEndian" compressor="vtkZLibDataCompressor">
<UnstructuredGrid>
<Piece NumberOfPoints="24" NumberOfCells="11">
<PointData>
<DataArray type="Float64" Name="displacement" NumberOfComponents="3" format="ascii" >
0.0 0.0  0.
3.925123717828297e-06 1.1632566205667183e-06  0.
8.233041622777753e-06 9.92429374017803e-07  0.
1.2483392777864731e-05 1.014009491293597e-06  0.
1.6750225631224696e-05 1.0351597028736664e-06  0.
2.1234369903280214e-05 9.961315044970517e-07  0.
2.6474928639885856e-05 9.960517870902336e-07  0.
3.0959234778175694e-05 1.03563809082052e-06  0.
3.5225001952131554e-05 1.0107682308174836e-06  0.
3.948258962212699e-05 1.0144319694415926e-06  0.
4.3741381630542347e-05 1.0138905896839723e-06  0.
4.800000000000002e-05 1.013981794366103e-06  0.
0.0 0.0  0.
3.925123717828305e-06 -1.163256620566727e-06  0.
8.233041622777767e-06 -9.924293740178326e-07  0.
1.2483392777864746e-05 -1.0140094912936544e-06  0.
1.6750225631224713e-05 -1.0351597028737547e-06  0.
2.1234369903280227e-05 -9.961315044971702e-07  0.
2.6474928639885866e-05 -9.960517870903837e-07  0.
3.09592347781757e-05 -1.0356380908206891e-06  0.
3.522500195213156e-05 -1.0107682308176691e-06  0.
3.948258962212699e-05 -1.0144319694417933e-06  0.
4.3741381630542347e-05 -1.0138905896841714e-06  0.
4.800000000000002e-05 -1.0139817943663047e-06  0.
</DataArray>
<DataArray type="Float64" Name="Nodal_sigma_xx" NumberOfComponents="1" format="ascii" >
5.1998019549717855e-05 
5.1998019549717855e-05 
5.1998019549717855e-05 
5.199801954971785e-05 
5.3362769019939086e-05 
5.6251547883812294e-05 
5.6251576523227894e-05 
5.3362797659354646e-05 
5.199801954971783e-05 
5.1998019549717896e-05 
5.199801954971788e-05 
5.199801954971788e-05 
5.1998019549717855e-05 
5.1998019549717855e-05 
5.1998019549717855e-05 
5.199801954971785e-05 
5.3362769019939086e-05 
5.6251547883812294e-05 
5.6251576523227894e-05 
5.3362797659354646e-05 
5.199801954971783e-05 
5.1998019549717896e-05 
5.199801954971788e-05 
5.199801954971788e-05 
</DataArray>
<DataArray type="Float64" Name="Nodal_sigma_yy" NumberOfComponents="1" format="ascii" >
9.501825734860148e-06 
4.048917086410598e-06 
-5.839523902087489e-07 
1.3047549407245107e-09 
-1.4466609614614443e-07 
1.9026222746241349e-07 
1.8802326595182506e-07 
-1.317244393646936e-07 
-8.659888472230896e-08 
1.2762447763524762e-08 
-1.919880758496876e-09 
5.536086672653452e-10 
9.501825734860148e-06 
4.048917086410598e-06 
-5.839523902087489e-07 
1.3047549407245107e-09 
-1.4466609614614443e-07 
1.9026222746241349e-07 
1.8802326595182506e-07 
-1.317244393646936e-07 
-8.659888472230896e-08 
1.2762447763524762e-08 
-1.919880758496876e-09 
5.536086672653452e-10 
</DataArray>
<DataArray type="Float64" Name="Nodal_sigma_xy" NumberOfComponents="1" format="ascii" >
-2.6469779601696886e-21 
-3.10358165829896e-21 
-2.2888087549342276e-21 
-2.036518668105554e-21 
-5.597531205146338e-21 
-8.142003392844807e-21 
-8.145312115295019e-21 
-5.090469489651332e-21 
-9.162266054943611e-21 
-8.144833901503387e-21 
0.0 
0.0 
-2.6469779601696886e-21 
-3.10358165829896e-21 
-2.2888087549342276e-21 
-2.036518668105554e-21 
-5.597531205146338e-21 
-8.142003392844807e-21 
-8.145312115295019e-21 
-5.090469489651332e-21 
-9.162266054943611e-21 
-8.144833901503387e-21 
0.0 
0.0 
</DataArray>
</PointData>
<CellData>
</CellData>
<Points>
<DataArray type="Float64" Name="Points" NumberOfComponents="3" format="ascii">
0.0 0.0 0.0
9.0 0.0 0.0
18.0 0.0 0.0
27.0 0.0 0.0
36.0 0.0 0.0
45.0 0.5 0.0
55.0 0.5 0.0
64.0 0.0 0.0
73.0 0.0 0.0
82.0 0.0 0.0
91.0 0.0 0.0
100.0 0.0 0.0
0.0 10.0 0.0
9.0 10.0 0.0
18.0 10.0 0.0
27.0 10.0 0.0
36.0 10.0 0.0
45.0 9.5 0.0
55.0 9.5 0.0
64.0 10.0 0.0
73.0 10.0 0.0
82.0 10.0 0.0
91.0 10.0 0.0
100.0 10.0 0.0
</DataArray>
</Points>
<Cells>
<DataArray type="Int64" Name="connectivity" format="ascii">
0 1 13 12 
1 2 14 13 
2 3 15 14 
3 4 16 15 
4 5 17 16 
5 6 18 17 
6 7 19 18 
7 8 20 19 
8 9 21 20 
9 10 22 21 
10 11 23 22 
</DataArray>
<DataArray type="Int64" Name="offsets" format="ascii">
4
8
12
16
20
24
28
32
36
40
44
</DataArray>
<DataArray type="UInt8" Name="types" format="ascii" RangeMin="9" RangeMax="9">
9
9
9
9
9
9
9
9
9
9
9
</DataArray>
</Cells>
</Piece>
</UnstructuredGrid>
</VTKFile>
