<?xml version="1.0"?>
<VTKFile type="UnstructuredGrid" version="0.1" byte_order="LittleEndian" compressor="vtkZLibDataCompressor">
<UnstructuredGrid>
<Piece NumberOfPoints="24" NumberOfCells="11">
<PointData>
<DataArray type="Float64" Name="displacement" NumberOfComponents="3" format="ascii" >
0.0 0.0  0.
7.114286738563788e-06 2.10840262477718e-06  0.
1.4922387941284676e-05 1.7987782404072821e-06  0.
2.262614940987982e-05 1.8378922029696737e-06  0.
3.035978395659475e-05 1.8762269614585612e-06  0.
3.848729544969536e-05 1.8054883519009558e-06  0.
4.798580815979308e-05 1.8053438641011048e-06  0.
5.611361303544341e-05 1.8770940396122446e-06  0.
6.384531603823841e-05 1.8320174183567422e-06  0.
7.156219369010511e-05 1.8386579446129416e-06  0.
7.928125420535794e-05 1.837676693802246e-06  0.
8.699999999999997e-05 1.837842002288599e-06  0.
0.0 0.0  0.
7.114286738563794e-06 -2.108402624777187e-06  0.
1.4922387941284688e-05 -1.7987782404073054e-06  0.
2.2626149409879834e-05 -1.8378922029697177e-06  0.
3.0359783956594772e-05 -1.8762269614586372e-06  0.
3.848729544969538e-05 -1.8054883519010695e-06  0.
4.7985808159793103e-05 -1.8053438641012607e-06  0.
5.611361303544342e-05 -1.8770940396124445e-06  0.
6.384531603823842e-05 -1.8320174183569713e-06  0.
7.156219369010512e-05 -1.838657944613193e-06  0.
7.928125420535795e-05 -1.8376766938025127e-06  0.
8.699999999999997e-05 -1.8378420022888875e-06  0.
</DataArray>
<DataArray type="Float64" Name="Nodal_sigma_xx" NumberOfComponents="1" format="ascii" >
9.424641043386355e-05 
9.424641043386355e-05 
9.424641043386355e-05 
9.424641043386354e-05 
9.672001884863948e-05 
0.0001019559305394097 
0.00010195598244835055 
9.672007075758033e-05 
9.424641043386351e-05 
9.424641043386347e-05 
9.424641043386355e-05 
9.424641043386366e-05 
9.424641043386355e-05 
9.424641043386355e-05 
9.424641043386355e-05 
9.424641043386354e-05 
9.672001884863948e-05 
0.0001019559305394097 
0.00010195598244835055 
9.672007075758033e-05 
9.424641043386351e-05 
9.424641043386347e-05 
9.424641043386355e-05 
9.424641043386366e-05 
</DataArray>
<DataArray type="Float64" Name="Nodal_sigma_yy" NumberOfComponents="1" format="ascii" >
1.7222059144434005e-05 
7.338662219119205e-06 
-1.0584137072533583e-06 
2.364868330061005e-09 
-2.622072992649173e-07 
3.44850287275614e-07 
3.4079216953770504e-07 
-2.3875054634846524e-07 
-1.569604785591861e-07 
2.3131936571315733e-08 
-3.4797838747928464e-09 
1.003415709445861e-09 
1.7222059144434005e-05 
7.338662219119205e-06 
-1.0584137072533583e-06 
2.364868330061005e-09 
-2.622072992649173e-07 
3.44850287275614e-07 
3.4079216953770504e-07 
-2.3875054634846524e-07 
-1.569604785591861e-07 
2.3131936571315733e-08 
-3.4797838747928464e-09 
1.003415709445861e-09 
</DataArray>
<DataArray type="Float64" Name="Nodal_sigma_xy" NumberOfComponents="1" format="ascii" >
-5.505714157152952e-21 
-2.752857078576476e-21 
5.092123850876438e-21 
5.092123850876438e-21 
7.126988157756886e-21 
7.126988157756886e-21 
-1.628553189994401e-20 
-1.22124945637329e-20 
1.2217457647408219e-20 
2.443357112632104e-20 
5.169878828456423e-26 
-3.257819823267129e-20 
-5.505714157152952e-21 
-2.752857078576476e-21 
5.092123850876438e-21 
5.092123850876438e-21 
7.126988157756886e-21 
7.126988157756886e-21 
-1.628553189994401e-20 
-1.22124945637329e-20 
1.2217457647408219e-20 
2.443357112632104e-20 
5.169878828456423e-26 
-3.257819823267129e-20 
</DataArray>
</PointData>
<CellData>
</CellData>
<Points>
<DataArray type="Float64" Name="Points" NumberOfComponents="3" format="ascii">
0.0 0.0 0.0
9.0 0.0 0.0
18.0 0.0 0.0
27.0 0.0 0.0
36.0 0.0 0.0
45.0 0.5 0.0
55.0 0.5 0.0
64.0 0.0 0.0
73.0 0.0 0.0
82.0 0.0 0.0
91.0 0.0 0.0
100.0 0.0 0.0
0.0 10.0 0.0
9.0 10.0 0.0
18.0 10.0 0.0
27.0 10.0 0.0
36.0 10.0 0.0
45.0 9.5 0.0
55.0 9.5 0.0
64.0 10.0 0.0
73.0 10.0 0.0
82.0 10.0 0.0
91.0 10.0 0.0
100.0 10.0 0.0
</DataArray>
</Points>
<Cells>
<DataArray type="Int64" Name="connectivity" format="ascii">
0 1 13 12 
1 2 14 13 
2 3 15 14 
3 4 16 15 
4 5 17 16 
5 6 18 17 
6 7 19 18 
7 8 20 19 
8 9 21 20 
9 10 22 21 
10 11 23 22 
</DataArray>
<DataArray type="Int64" Name="offsets" format="ascii">
4
8
12
16
20
24
28
32
36
40
44
</DataArray>
<DataArray type="UInt8" Name="types" format="ascii" RangeMin="9" RangeMax="9">
9
9
9
9
9
9
9
9
9
9
9
</DataArray>
</Cells>
</Piece>
</UnstructuredGrid>
</VTKFile>
