<?xml version="1.0"?>
<VTKFile type="UnstructuredGrid" version="0.1" byte_order="LittleEndian" compressor="vtkZLibDataCompressor">
<UnstructuredGrid>
<Piece NumberOfPoints="24" NumberOfCells="11">
<PointData>
<DataArray type="Float64" Name="displacement" NumberOfComponents="3" format="ascii" >
0.0 0.0  0.
1.4719213941856081e-06 4.3622123271251654e-07  0.
3.0873906085416514e-06 3.721610152566669e-07  0.
4.681272291699265e-06 3.8025355923507973e-07  0.
6.28133461170925e-06 3.881848885775932e-07  0.
7.962888713730068e-06 3.7354931418634916e-07  0.
9.928098239957182e-06 3.73519420158777e-07  0.
1.160971304181587e-05 3.883642840576221e-07  0.
1.320937573204932e-05 3.790380865564726e-07  0.
1.4805971108297607e-05 3.8041198854050614e-07  0.
1.640301811145337e-05 3.8020897113139113e-07  0.
1.7999999999999997e-05 3.802431728871878e-07  0.
0.0 0.0  0.
1.4719213941856158e-06 -4.362212327125249e-07  0.
3.087390608541665e-06 -3.721610152566959e-07  0.
4.681272291699283e-06 -3.802535592351392e-07  0.
6.2813346117092704e-06 -3.881848885776892e-07  0.
7.962888713730087e-06 -3.735493141864838e-07  0.
9.928098239957199e-06 -3.7351942015895366e-07  0.
1.1609713041815888e-05 -3.8836428405783106e-07  0.
1.3209375732049335e-05 -3.790380865567096e-07  0.
1.4805971108297617e-05 -3.8041198854076327e-07  0.
1.6403018111453372e-05 -3.802089711316626e-07  0.
1.7999999999999997e-05 -3.802431728874641e-07  0.
</DataArray>
<DataArray type="Float64" Name="Nodal_sigma_xx" NumberOfComponents="1" format="ascii" >
1.9499257331144184e-05 
1.949925733114418e-05 
1.9499257331144177e-05 
1.949925733114418e-05 
2.0011038382477144e-05 
2.1094330456429586e-05 
2.1094341196210454e-05 
2.0011049122258008e-05 
1.9499257331144184e-05 
1.949925733114419e-05 
1.949925733114418e-05 
1.9499257331144177e-05 
1.9499257331144184e-05 
1.949925733114418e-05 
1.9499257331144177e-05 
1.949925733114418e-05 
2.0011038382477144e-05 
2.1094330456429586e-05 
2.1094341196210454e-05 
2.0011049122258008e-05 
1.9499257331144184e-05 
1.949925733114419e-05 
1.949925733114418e-05 
1.9499257331144177e-05 
</DataArray>
<DataArray type="Float64" Name="Nodal_sigma_yy" NumberOfComponents="1" format="ascii" >
3.5631846505725537e-06 
1.518343907403973e-06 
-2.1898214632828178e-07 
4.892831027713739e-10 
-5.424978605480538e-08 
7.134833529840183e-08 
7.050872473193778e-08 
-4.939666476175142e-08 
-3.2474581770866176e-08 
4.785917911314692e-09 
-7.199552844416225e-10 
2.0760325022048105e-10 
3.5631846505725537e-06 
1.518343907403973e-06 
-2.1898214632828178e-07 
4.892831027713739e-10 
-5.424978605480538e-08 
7.134833529840183e-08 
7.050872473193778e-08 
-4.939666476175142e-08 
-3.2474581770866176e-08 
4.785917911314692e-09 
-7.199552844416225e-10 
2.0760325022048105e-10 
</DataArray>
<DataArray type="Float64" Name="Nodal_sigma_xy" NumberOfComponents="1" format="ascii" >
-3.3881317890172014e-21 
-3.2193869440563837e-21 
-2.67055260762745e-21 
-2.926565007212612e-21 
-4.835284270678723e-21 
-5.0900865955006e-21 
-4.072654442060376e-21 
-1.0186729243590536e-21 
4.0720550592337016e-21 
3.054209315487201e-21 
0.0 
0.0 
-3.3881317890172014e-21 
-3.2193869440563837e-21 
-2.67055260762745e-21 
-2.926565007212612e-21 
-4.835284270678723e-21 
-5.0900865955006e-21 
-4.072654442060376e-21 
-1.0186729243590536e-21 
4.0720550592337016e-21 
3.054209315487201e-21 
0.0 
0.0 
</DataArray>
</PointData>
<CellData>
</CellData>
<Points>
<DataArray type="Float64" Name="Points" NumberOfComponents="3" format="ascii">
0.0 0.0 0.0
9.0 0.0 0.0
18.0 0.0 0.0
27.0 0.0 0.0
36.0 0.0 0.0
45.0 0.5 0.0
55.0 0.5 0.0
64.0 0.0 0.0
73.0 0.0 0.0
82.0 0.0 0.0
91.0 0.0 0.0
100.0 0.0 0.0
0.0 10.0 0.0
9.0 10.0 0.0
18.0 10.0 0.0
27.0 10.0 0.0
36.0 10.0 0.0
45.0 9.5 0.0
55.0 9.5 0.0
64.0 10.0 0.0
73.0 10.0 0.0
82.0 10.0 0.0
91.0 10.0 0.0
100.0 10.0 0.0
</DataArray>
</Points>
<Cells>
<DataArray type="Int64" Name="connectivity" format="ascii">
0 1 13 12 
1 2 14 13 
2 3 15 14 
3 4 16 15 
4 5 17 16 
5 6 18 17 
6 7 19 18 
7 8 20 19 
8 9 21 20 
9 10 22 21 
10 11 23 22 
</DataArray>
<DataArray type="Int64" Name="offsets" format="ascii">
4
8
12
16
20
24
28
32
36
40
44
</DataArray>
<DataArray type="UInt8" Name="types" format="ascii" RangeMin="9" RangeMax="9">
9
9
9
9
9
9
9
9
9
9
9
</DataArray>
</Cells>
</Piece>
</UnstructuredGrid>
</VTKFile>
