<?xml version="1.0"?>
<VTKFile type="UnstructuredGrid" version="0.1" byte_order="LittleEndian" compressor="vtkZLibDataCompressor">
<UnstructuredGrid>
<Piece NumberOfPoints="24" NumberOfCells="11">
<PointData>
<DataArray type="Float64" Name="displacement" NumberOfComponents="3" format="ascii" >
0.0 0.0  0.
6.133005809106671e-07 1.8175884696354546e-07  0.
1.286412753559016e-06 1.5506708969026676e-07  0.
1.9505301215413533e-06 1.5843898301459342e-07  0.
2.6172227548788452e-06 1.617437035739588e-07  0.
3.3178702973875194e-06 1.5564554757758953e-07  0.
4.136707599982151e-06 1.5563309173274725e-07  0.
4.837380434089938e-06 1.6181845169058273e-07  0.
5.503906555020544e-06 1.579325360650903e-07  0.
6.169154628457333e-06 1.5850499522509396e-07  0.
6.834590879772236e-06 1.584204046379571e-07  0.
7.5e-06 1.5843465536953728e-07  0.
0.0 0.0  0.
6.133005809106763e-07 -1.817588469635552e-07  0.
1.2864127535590325e-06 -1.5506708969030107e-07  0.
1.9505301215413757e-06 -1.5843898301466441e-07  0.
2.617222754878872e-06 -1.6174370357407547e-07  0.
3.317870297387545e-06 -1.5564554757775746e-07  0.
4.136707599982175e-06 -1.5563309173297386e-07  0.
4.837380434089962e-06 -1.6181845169085621e-07  0.
5.503906555020563e-06 -1.5793253606540233e-07  0.
6.169154628457345e-06 -1.5850499522543524e-07  0.
6.834590879772241e-06 -1.5842040463831534e-07  0.
7.5e-06 -1.5843465536990143e-07  0.
</DataArray>
<DataArray type="Float64" Name="Nodal_sigma_xx" NumberOfComponents="1" format="ascii" >
8.12469055464341e-06 
8.124690554643408e-06 
8.124690554643411e-06 
8.124690554643411e-06 
8.337932659365474e-06 
8.789304356845662e-06 
8.78930883175436e-06 
8.337937134274168e-06 
8.124690554643408e-06 
8.124690554643414e-06 
8.124690554643421e-06 
8.124690554643426e-06 
8.12469055464341e-06 
8.124690554643408e-06 
8.124690554643411e-06 
8.124690554643411e-06 
8.337932659365474e-06 
8.789304356845662e-06 
8.78930883175436e-06 
8.337937134274168e-06 
8.124690554643408e-06 
8.124690554643414e-06 
8.124690554643421e-06 
8.124690554643426e-06 
</DataArray>
<DataArray type="Float64" Name="Nodal_sigma_yy" NumberOfComponents="1" format="ascii" >
1.4846602710718965e-06 
6.326432947516547e-07 
-9.124256097011667e-08 
2.0386795948902536e-10 
-2.260407752283614e-08 
2.9728473041001326e-08 
2.9378635304975577e-08 
-2.0581943650730094e-08 
-1.3531075737862601e-08 
1.9941324630464824e-09 
-2.9998136851508397e-10 
8.650135426375714e-11 
1.4846602710718965e-06 
6.326432947516547e-07 
-9.124256097011667e-08 
2.0386795948902536e-10 
-2.260407752283614e-08 
2.9728473041001326e-08 
2.9378635304975577e-08 
-2.0581943650730094e-08 
-1.3531075737862601e-08 
1.9941324630464824e-09 
-2.9998136851508397e-10 
8.650135426375714e-11 
</DataArray>
<DataArray type="Float64" Name="Nodal_sigma_xy" NumberOfComponents="1" format="ascii" >
-3.321957340012959e-21 
-3.315339895112535e-21 
-3.436108264545277e-21 
-3.0543644118520547e-21 
-3.0543644118520547e-21 
-4.199659381726727e-21 
-3.436171676340282e-21 
-2.545234744825666e-21 
-3.563132187360451e-21 
-3.0542287025328077e-21 
-2.0361406207162233e-21 
-2.0361373895419555e-21 
-3.321957340012959e-21 
-3.315339895112535e-21 
-3.436108264545277e-21 
-3.0543644118520547e-21 
-3.0543644118520547e-21 
-4.199659381726727e-21 
-3.436171676340282e-21 
-2.545234744825666e-21 
-3.563132187360451e-21 
-3.0542287025328077e-21 
-2.0361406207162233e-21 
-2.0361373895419555e-21 
</DataArray>
</PointData>
<CellData>
</CellData>
<Points>
<DataArray type="Float64" Name="Points" NumberOfComponents="3" format="ascii">
0.0 0.0 0.0
9.0 0.0 0.0
18.0 0.0 0.0
27.0 0.0 0.0
36.0 0.0 0.0
45.0 0.5 0.0
55.0 0.5 0.0
64.0 0.0 0.0
73.0 0.0 0.0
82.0 0.0 0.0
91.0 0.0 0.0
100.0 0.0 0.0
0.0 10.0 0.0
9.0 10.0 0.0
18.0 10.0 0.0
27.0 10.0 0.0
36.0 10.0 0.0
45.0 9.5 0.0
55.0 9.5 0.0
64.0 10.0 0.0
73.0 10.0 0.0
82.0 10.0 0.0
91.0 10.0 0.0
100.0 10.0 0.0
</DataArray>
</Points>
<Cells>
<DataArray type="Int64" Name="connectivity" format="ascii">
0 1 13 12 
1 2 14 13 
2 3 15 14 
3 4 16 15 
4 5 17 16 
5 6 18 17 
6 7 19 18 
7 8 20 19 
8 9 21 20 
9 10 22 21 
10 11 23 22 
</DataArray>
<DataArray type="Int64" Name="offsets" format="ascii">
4
8
12
16
20
24
28
32
36
40
44
</DataArray>
<DataArray type="UInt8" Name="types" format="ascii" RangeMin="9" RangeMax="9">
9
9
9
9
9
9
9
9
9
9
9
</DataArray>
</Cells>
</Piece>
</UnstructuredGrid>
</VTKFile>
