<?xml version="1.0"?>
<VTKFile type="UnstructuredGrid" version="0.1" byte_order="LittleEndian" compressor="vtkZLibDataCompressor">
<UnstructuredGrid>
<Piece NumberOfPoints="24" NumberOfCells="11">
<PointData>
<DataArray type="Float64" Name="displacement" NumberOfComponents="3" format="ascii" >
0.0 0.0  0.
2.6985225560069526e-06 7.997389266396177e-07  0.
5.660216115659703e-06 6.822951946372366e-07  0.
8.582332534781998e-06 6.971315252643432e-07  0.
1.1515780121466972e-05 7.116722957256367e-07  0.
1.4598629308505136e-05 6.848404093417076e-07  0.
1.820151343992151e-05 6.847856036245085e-07  0.
2.128447390999577e-05 7.120011874390672e-07  0.
2.421718884209043e-05 6.949031586869675e-07  0.
2.7144280365212284e-05 6.97421978991032e-07  0.
3.007219987099784e-05 6.970497804076542e-07  0.
3.2999999999999996e-05 6.971124836266153e-07  0.
0.0 0.0  0.
2.6985225560069594e-06 -7.997389266396255e-07  0.
5.660216115659714e-06 -6.822951946372622e-07  0.
8.582332534782012e-06 -6.971315252643917e-07  0.
1.1515780121466989e-05 -7.116722957257145e-07  0.
1.4598629308505153e-05 -6.848404093418192e-07  0.
1.820151343992153e-05 -6.847856036246646e-07  0.
2.128447390999579e-05 -7.120011874392632e-07  0.
2.4217188842090445e-05 -6.949031586871989e-07  0.
2.7144280365212298e-05 -6.974219789912947e-07  0.
3.0072199870997854e-05 -6.970497804079434e-07  0.
3.2999999999999996e-05 -6.97112483626913e-07  0.
</DataArray>
<DataArray type="Float64" Name="Nodal_sigma_xx" NumberOfComponents="1" format="ascii" >
3.574863844043101e-05 
3.574863844043101e-05 
3.574863844043101e-05 
3.5748638440431006e-05 
3.66869037012081e-05 
3.867293917012092e-05 
3.8672958859719176e-05 
3.668692339080634e-05 
3.574863844043101e-05 
3.5748638440431e-05 
3.574863844043097e-05 
3.5748638440430986e-05 
3.574863844043101e-05 
3.574863844043101e-05 
3.574863844043101e-05 
3.5748638440431006e-05 
3.66869037012081e-05 
3.867293917012092e-05 
3.8672958859719176e-05 
3.668692339080634e-05 
3.574863844043101e-05 
3.5748638440431e-05 
3.574863844043097e-05 
3.5748638440430986e-05 
</DataArray>
<DataArray type="Float64" Name="Nodal_sigma_yy" NumberOfComponents="1" format="ascii" >
6.5325051927163475e-06 
2.783630496907286e-06 
-4.0146726826851256e-07 
8.970190217498481e-10 
-9.945794110047871e-08 
1.3080528138040723e-07 
1.2926599534188894e-07 
-9.056055206320695e-08 
-5.953673324657232e-08 
8.774182837411045e-09 
-1.3199180214815313e-09 
3.8060595874037204e-10 
6.5325051927163475e-06 
2.783630496907286e-06 
-4.0146726826851256e-07 
8.970190217498481e-10 
-9.945794110047871e-08 
1.3080528138040723e-07 
1.2926599534188894e-07 
-9.056055206320695e-08 
-5.953673324657232e-08 
8.774182837411045e-09 
-1.3199180214815313e-09 
3.8060595874037204e-10 
</DataArray>
<DataArray type="Float64" Name="Nodal_sigma_xy" NumberOfComponents="1" format="ascii" >
-3.917527381051139e-21 
-3.738856368739685e-21 
-2.7975248316543396e-21 
-3.561839717653337e-21 
-6.107901643091556e-21 
-6.6177001631913764e-21 
-4.073292598978263e-21 
1.017432153440224e-21 
4.1359030627651384e-25 
-4.072248929689769e-21 
2.03613092719342e-21 
8.144549558167822e-21 
-3.917527381051139e-21 
-3.738856368739685e-21 
-2.7975248316543396e-21 
-3.561839717653337e-21 
-6.107901643091556e-21 
-6.6177001631913764e-21 
-4.073292598978263e-21 
1.017432153440224e-21 
4.1359030627651384e-25 
-4.072248929689769e-21 
2.03613092719342e-21 
8.144549558167822e-21 
</DataArray>
</PointData>
<CellData>
</CellData>
<Points>
<DataArray type="Float64" Name="Points" NumberOfComponents="3" format="ascii">
0.0 0.0 0.0
9.0 0.0 0.0
18.0 0.0 0.0
27.0 0.0 0.0
36.0 0.0 0.0
45.0 0.5 0.0
55.0 0.5 0.0
64.0 0.0 0.0
73.0 0.0 0.0
82.0 0.0 0.0
91.0 0.0 0.0
100.0 0.0 0.0
0.0 10.0 0.0
9.0 10.0 0.0
18.0 10.0 0.0
27.0 10.0 0.0
36.0 10.0 0.0
45.0 9.5 0.0
55.0 9.5 0.0
64.0 10.0 0.0
73.0 10.0 0.0
82.0 10.0 0.0
91.0 10.0 0.0
100.0 10.0 0.0
</DataArray>
</Points>
<Cells>
<DataArray type="Int64" Name="connectivity" format="ascii">
0 1 13 12 
1 2 14 13 
2 3 15 14 
3 4 16 15 
4 5 17 16 
5 6 18 17 
6 7 19 18 
7 8 20 19 
8 9 21 20 
9 10 22 21 
10 11 23 22 
</DataArray>
<DataArray type="Int64" Name="offsets" format="ascii">
4
8
12
16
20
24
28
32
36
40
44
</DataArray>
<DataArray type="UInt8" Name="types" format="ascii" RangeMin="9" RangeMax="9">
9
9
9
9
9
9
9
9
9
9
9
</DataArray>
</Cells>
</Piece>
</UnstructuredGrid>
</VTKFile>
