<?xml version="1.0"?>
<VTKFile type="UnstructuredGrid" version="0.1" byte_order="LittleEndian" compressor="vtkZLibDataCompressor">
<UnstructuredGrid>
<Piece NumberOfPoints="24" NumberOfCells="11">
<PointData>
<DataArray type="Float64" Name="displacement" NumberOfComponents="3" format="ascii" >
0.0 0.0  0.
-6.611679213532672e-142 -7.764879076358139e-142  0.
-1.0891332037796069e-141 -2.4909117037030068e-141  0.
-1.3274611754302032e-141 -4.7153061057752393e-141  0.
-1.4043411662852343e-141 -7.195967144030909e-141  0.
-1.2505811845751722e-141 -9.512617535129178e-141  0.
0.0001455 -4.569740682162311e-06  0.
0.0001455 -4.569740682162306e-06  0.
0.0001455 -4.569740682162309e-06  0.
0.0001455 -4.5697406821623055e-06  0.
0.0001455 -4.569740682162298e-06  0.
0.0001455 -4.569740682162296e-06  0.
0.0 0.0  0.
6.227279259257517e-142 -7.687999085503108e-142  0.
1.0148158792864102e-141 -2.470410372808332e-141  0.
1.2249545209568285e-141 -4.6948047748805643e-141  0.
1.2659571827461784e-141 -7.175465813136234e-141  0.
1.1326985319307912e-141 -9.553620196918528e-141  0.
0.0001455 -4.569740682162306e-06  0.
0.0001455 -4.569740682162309e-06  0.
0.0001455 -4.569740682162309e-06  0.
0.0001455 -4.5697406821623055e-06  0.
0.0001455 -4.569740682162298e-06  0.
0.0001455 -4.569740682162296e-06  0.
</DataArray>
<DataArray type="Float64" Name="Nodal_sigma_xx" NumberOfComponents="1" format="ascii" >
-2.653016778437512e-142 
-2.2614983064905916e-142 
-1.3976935659363742e-142 
-1.2128858956117713e-142 
-4.43881389296032e-143 
3.0630085765120066e-143 
-1.6534704156805085e-20 
-1.8825358160798085e-20 
-1.5271026693286665e-21 
0.0 
-1.5271026693286663e-21 
-1.5271026693286663e-21 
-2.653016778437512e-142 
-2.2614983064905916e-142 
-1.3976935659363742e-142 
-1.2128858956117713e-142 
-4.43881389296032e-143 
3.0630085765120066e-143 
-1.6534704156805085e-20 
-1.8825358160798085e-20 
-1.5271026693286665e-21 
0.0 
-1.5271026693286663e-21 
-1.5271026693286663e-21 
</DataArray>
<DataArray type="Float64" Name="Nodal_sigma_yy" NumberOfComponents="1" format="ascii" >
-7.1458965858843065e-143 
1.6427348473298546e-144 
1.3018673665088187e-142 
1.733085263932879e-142 
5.573565187684662e-143 
-2.475835564231078e-143 
-4.5325998056201295e-21 
-9.877459148270462e-21 
-3.563239561766888e-21 
0.0 
-3.5632395617668884e-21 
-3.5632395617668884e-21 
-7.1458965858843065e-143 
1.6427348473298546e-144 
1.3018673665088187e-142 
1.733085263932879e-142 
5.573565187684662e-143 
-2.475835564231078e-143 
-4.5325998056201295e-21 
-9.877459148270462e-21 
-3.563239561766888e-21 
0.0 
-3.5632395617668884e-21 
-3.5632395617668884e-21 
</DataArray>
<DataArray type="Float64" Name="Nodal_sigma_xy" NumberOfComponents="1" format="ascii" >
-8.3286656759617e-142 
-8.084993340274452e-142 
-6.677717154395323e-142 
-5.54423010973781e-142 
-2.1324381391531157e-142 
6.547353184829737e-143 
0.0 
-4.072273784876444e-20 
-5.701183298827023e-20 
-4.8867285418517334e-20 
-6.515638055802311e-20 
-6.515638055802311e-20 
-8.3286656759617e-142 
-8.084993340274452e-142 
-6.677717154395323e-142 
-5.54423010973781e-142 
-2.1324381391531157e-142 
6.547353184829737e-143 
0.0 
-4.072273784876444e-20 
-5.701183298827023e-20 
-4.8867285418517334e-20 
-6.515638055802311e-20 
-6.515638055802311e-20 
</DataArray>
</PointData>
<CellData>
</CellData>
<Points>
<DataArray type="Float64" Name="Points" NumberOfComponents="3" format="ascii">
0.0 0.0 0.0
9.0 0.0 0.0
18.0 0.0 0.0
27.0 0.0 0.0
36.0 0.0 0.0
45.0 0.5 0.0
55.0 0.5 0.0
64.0 0.0 0.0
73.0 0.0 0.0
82.0 0.0 0.0
91.0 0.0 0.0
100.0 0.0 0.0
0.0 10.0 0.0
9.0 10.0 0.0
18.0 10.0 0.0
27.0 10.0 0.0
36.0 10.0 0.0
45.0 9.5 0.0
55.0 9.5 0.0
64.0 10.0 0.0
73.0 10.0 0.0
82.0 10.0 0.0
91.0 10.0 0.0
100.0 10.0 0.0
</DataArray>
</Points>
<Cells>
<DataArray type="Int64" Name="connectivity" format="ascii">
0 1 13 12 
1 2 14 13 
2 3 15 14 
3 4 16 15 
4 5 17 16 
5 6 18 17 
6 7 19 18 
7 8 20 19 
8 9 21 20 
9 10 22 21 
10 11 23 22 
</DataArray>
<DataArray type="Int64" Name="offsets" format="ascii">
4
8
12
16
20
24
28
32
36
40
44
</DataArray>
<DataArray type="UInt8" Name="types" format="ascii" RangeMin="9" RangeMax="9">
9
9
9
9
9
9
9
9
9
9
9
</DataArray>
</Cells>
</Piece>
</UnstructuredGrid>
</VTKFile>
