<?xml version="1.0"?>
<VTKFile type="UnstructuredGrid" version="0.1" byte_order="LittleEndian" compressor="vtkZLibDataCompressor">
<UnstructuredGrid>
<Piece NumberOfPoints="24" NumberOfCells="11">
<PointData>
<DataArray type="Float64" Name="displacement" NumberOfComponents="3" format="ascii" >
0.0 0.0  0.
-3.625368246956038e-195 -4.280877634782037e-195  0.
-5.912962233042689e-195 -1.3645297460867744e-194  0.
-7.143714553042525e-195 -2.5792287749561774e-194  0.
-7.518291346085953e-195 -3.938407423999474e-194  0.
-6.688871304346933e-195 -5.201266326260175e-194  0.
0.00015150000000000005 -6.24762193686988e-06  0.
0.00015150000000000005 -6.24762193686989e-06  0.
0.00015150000000000005 -6.2476219368698885e-06  0.
0.00015150000000000005 -6.247621936869879e-06  0.
0.00015150000000000005 -6.2476219368698716e-06  0.
0.00015150000000000005 -6.24762193686987e-06  0.
0.0 0.0  0.
3.464835335651711e-195 -4.2541221495646495e-195  0.
5.60527415304273e-195 -1.3591786490432968e-194  0.
6.688871304346933e-195 -2.5792287749561774e-194  0.
6.929670671303423e-195 -3.917003035825564e-194  0.
6.207272570433954e-195 -5.2226707144340854e-194  0.
0.00015150000000000005 -6.247621936869877e-06  0.
0.00015150000000000005 -6.247621936869892e-06  0.
0.00015150000000000005 -6.2476219368698885e-06  0.
0.00015150000000000005 -6.247621936869879e-06  0.
0.00015150000000000005 -6.247621936869871e-06  0.
0.00015150000000000005 -6.24762193686987e-06  0.
</DataArray>
<DataArray type="Float64" Name="Nodal_sigma_xx" NumberOfComponents="1" format="ascii" >
-1.1233873600890382e-195 
-9.961844656260258e-196 
-9.075712133034781e-196 
-6.645993924190871e-196 
7.646217344976182e-197 
2.6798113814687756e-196 
2.1050769583568285e-20 
1.8760115579575285e-20 
-3.0542053386573326e-21 
-7.635513346643332e-22 
7.635513346643332e-22 
1.5271026693286663e-21 
-1.1233873600890382e-195 
-9.961844656260258e-196 
-9.075712133034781e-196 
-6.645993924190871e-196 
7.646217344976182e-197 
2.6798113814687756e-196 
2.1050769583568285e-20 
1.8760115579575285e-20 
-3.0542053386573326e-21 
-7.635513346643332e-22 
7.635513346643332e-22 
1.5271026693286663e-21 
</DataArray>
<DataArray type="Float64" Name="Nodal_sigma_yy" NumberOfComponents="1" format="ascii" >
-3.3444356521734628e-196 
-1.3291987848381168e-196 
-2.1438690078031805e-197 
4.5021249163873055e-196 
6.289059082996968e-196 
1.22952822458073e-196 
1.1666624510544957e-20 
6.321765167894624e-21 
-7.126479123533777e-21 
-1.7816197808834442e-21 
1.7816197808834442e-21 
3.5632395617668884e-21 
-3.3444356521734628e-196 
-1.3291987848381168e-196 
-2.1438690078031805e-197 
4.5021249163873055e-196 
6.289059082996968e-196 
1.22952822458073e-196 
1.1666624510544957e-20 
6.321765167894624e-21 
-7.126479123533777e-21 
-1.7816197808834442e-21 
1.7816197808834442e-21 
3.5632395617668884e-21 
</DataArray>
<DataArray type="Float64" Name="Nodal_sigma_xy" NumberOfComponents="1" format="ascii" >
-4.602172136751522e-195 
-4.38921448197637e-195 
-3.724615089557284e-195 
-3.2572516458561213e-195 
-1.4653518062143619e-195 
1.5541316368508511e-196 
-2.1450064323411834e-20 
-2.1450064323411834e-20 
0.0 
3.2578190279011556e-20 
3.2578190279011556e-20 
0.0 
-4.602172136751522e-195 
-4.38921448197637e-195 
-3.724615089557284e-195 
-3.2572516458561213e-195 
-1.4653518062143619e-195 
1.5541316368508511e-196 
-2.1450064323411834e-20 
-2.1450064323411834e-20 
0.0 
3.2578190279011556e-20 
3.2578190279011556e-20 
0.0 
</DataArray>
</PointData>
<CellData>
</CellData>
<Points>
<DataArray type="Float64" Name="Points" NumberOfComponents="3" format="ascii">
0.0 0.0 0.0
9.0 0.0 0.0
18.0 0.0 0.0
27.0 0.0 0.0
36.0 0.0 0.0
45.0 0.5 0.0
55.0 0.5 0.0
64.0 0.0 0.0
73.0 0.0 0.0
82.0 0.0 0.0
91.0 0.0 0.0
100.0 0.0 0.0
0.0 10.0 0.0
9.0 10.0 0.0
18.0 10.0 0.0
27.0 10.0 0.0
36.0 10.0 0.0
45.0 9.5 0.0
55.0 9.5 0.0
64.0 10.0 0.0
73.0 10.0 0.0
82.0 10.0 0.0
91.0 10.0 0.0
100.0 10.0 0.0
</DataArray>
</Points>
<Cells>
<DataArray type="Int64" Name="connectivity" format="ascii">
0 1 13 12 
1 2 14 13 
2 3 15 14 
3 4 16 15 
4 5 17 16 
5 6 18 17 
6 7 19 18 
7 8 20 19 
8 9 21 20 
9 10 22 21 
10 11 23 22 
</DataArray>
<DataArray type="Int64" Name="offsets" format="ascii">
4
8
12
16
20
24
28
32
36
40
44
</DataArray>
<DataArray type="UInt8" Name="types" format="ascii" RangeMin="9" RangeMax="9">
9
9
9
9
9
9
9
9
9
9
9
</DataArray>
</Cells>
</Piece>
</UnstructuredGrid>
</VTKFile>
