<?xml version="1.0"?>
<VTKFile type="UnstructuredGrid" version="0.1" byte_order="LittleEndian" compressor="vtkZLibDataCompressor">
<UnstructuredGrid>
<Piece NumberOfPoints="24" NumberOfCells="11">
<PointData>
<DataArray type="Float64" Name="displacement" NumberOfComponents="3" format="ascii" >
0.0 0.0  0.
5.887685576742444e-06 1.7448849308500765e-06  0.
1.2349562434166626e-05 1.4886440610266996e-06  0.
1.872508916679709e-05 1.5210142369403852e-06  0.
2.5125338446837034e-05 1.5527395543104775e-06  0.
3.185155485492031e-05 1.494197256745538e-06  0.
3.971239295982876e-05 1.4940776806352859e-06  0.
4.6438852167263524e-05 1.5534571362306924e-06  0.
5.2837502928197314e-05 1.5161523462261198e-06  0.
5.922388443319046e-05 1.5216479541622647e-06  0.
6.56120724458135e-05 1.5208358845258135e-06  0.
7.200000000000002e-05 1.520972691549004e-06  0.
0.0 0.0  0.
5.887685576742459e-06 -1.7448849308500911e-06  0.
1.2349562434166651e-05 -1.4886440610267524e-06  0.
1.8725089166797123e-05 -1.521014236940492e-06  0.
2.512533844683708e-05 -1.5527395543106535e-06  0.
3.185155485492035e-05 -1.4941972567457943e-06  0.
3.97123929598288e-05 -1.4940776806356389e-06  0.
4.643885216726356e-05 -1.553457136231121e-06  0.
5.2837502928197354e-05 -1.5161523462266096e-06  0.
5.922388443319049e-05 -1.5216479541628136e-06  0.
6.561207244581352e-05 -1.520835884526402e-06  0.
7.200000000000002e-05 -1.5209726915496065e-06  0.
</DataArray>
<DataArray type="Float64" Name="Nodal_sigma_xx" NumberOfComponents="1" format="ascii" >
7.799702932457678e-05 
7.799702932457676e-05 
7.799702932457676e-05 
7.799702932457679e-05 
8.004415352990863e-05 
8.43773218257184e-05 
8.437736478484188e-05 
8.004419648903208e-05 
7.799702932457676e-05 
7.799702932457674e-05 
7.79970293245767e-05 
7.799702932457668e-05 
7.799702932457678e-05 
7.799702932457676e-05 
7.799702932457676e-05 
7.799702932457679e-05 
8.004415352990863e-05 
8.43773218257184e-05 
8.437736478484188e-05 
8.004419648903208e-05 
7.799702932457676e-05 
7.799702932457674e-05 
7.79970293245767e-05 
7.799702932457668e-05 
</DataArray>
<DataArray type="Float64" Name="Nodal_sigma_yy" NumberOfComponents="1" format="ascii" >
1.4252738602290225e-05 
6.0733756296158986e-06 
-8.759285853131203e-07 
1.957132411102436e-09 
-2.1699914421921474e-07 
2.853933411936158e-07 
2.8203489892776215e-07 
-1.975866590469879e-07 
-1.2989832708345285e-07 
1.914367164523844e-08 
-2.879821137793595e-09 
8.30413000851431e-10 
1.4252738602290225e-05 
6.0733756296158986e-06 
-8.759285853131203e-07 
1.957132411102436e-09 
-2.1699914421921474e-07 
2.853933411936158e-07 
2.8203489892776215e-07 
-1.975866590469879e-07 
-1.2989832708345285e-07 
1.914367164523844e-08 
-2.879821137793595e-09 
8.30413000851431e-10 
</DataArray>
<DataArray type="Float64" Name="Nodal_sigma_xy" NumberOfComponents="1" format="ascii" >
-1.6940658945086007e-21 
-3.40136667881805e-21 
-3.5734202462290796e-21 
-1.0190865146653301e-21 
-4.0763460586613204e-21 
-1.2220895616829142e-20 
-6.112993973737586e-21 
8.137802866296686e-21 
1.0178457437465006e-20 
8.144472009985395e-21 
-4.0722812414324465e-21 
-1.6289086191638573e-20 
-1.6940658945086007e-21 
-3.40136667881805e-21 
-3.5734202462290796e-21 
-1.0190865146653301e-21 
-4.0763460586613204e-21 
-1.2220895616829142e-20 
-6.112993973737586e-21 
8.137802866296686e-21 
1.0178457437465006e-20 
8.144472009985395e-21 
-4.0722812414324465e-21 
-1.6289086191638573e-20 
</DataArray>
</PointData>
<CellData>
</CellData>
<Points>
<DataArray type="Float64" Name="Points" NumberOfComponents="3" format="ascii">
0.0 0.0 0.0
9.0 0.0 0.0
18.0 0.0 0.0
27.0 0.0 0.0
36.0 0.0 0.0
45.0 0.5 0.0
55.0 0.5 0.0
64.0 0.0 0.0
73.0 0.0 0.0
82.0 0.0 0.0
91.0 0.0 0.0
100.0 0.0 0.0
0.0 10.0 0.0
9.0 10.0 0.0
18.0 10.0 0.0
27.0 10.0 0.0
36.0 10.0 0.0
45.0 9.5 0.0
55.0 9.5 0.0
64.0 10.0 0.0
73.0 10.0 0.0
82.0 10.0 0.0
91.0 10.0 0.0
100.0 10.0 0.0
</DataArray>
</Points>
<Cells>
<DataArray type="Int64" Name="connectivity" format="ascii">
0 1 13 12 
1 2 14 13 
2 3 15 14 
3 4 16 15 
4 5 17 16 
5 6 18 17 
6 7 19 18 
7 8 20 19 
8 9 21 20 
9 10 22 21 
10 11 23 22 
</DataArray>
<DataArray type="Int64" Name="offsets" format="ascii">
4
8
12
16
20
24
28
32
36
40
44
</DataArray>
<DataArray type="UInt8" Name="types" format="ascii" RangeMin="9" RangeMax="9">
9
9
9
9
9
9
9
9
9
9
9
</DataArray>
</Cells>
</Piece>
</UnstructuredGrid>
</VTKFile>
