<?xml version="1.0"?>
<VTKFile type="UnstructuredGrid" version="0.1" byte_order="LittleEndian" compressor="vtkZLibDataCompressor">
<UnstructuredGrid>
<Piece NumberOfPoints="24" NumberOfCells="11">
<PointData>
<DataArray type="Float64" Name="displacement" NumberOfComponents="3" format="ascii" >
0.0 0.0  0.
9.8128092945707e-07 2.9081415514167535e-07  0.
2.05826040569443e-06 2.4810734350443603e-07  0.
3.120848194466171e-06 2.535023728233684e-07  0.
4.1875564078061605e-06 2.587899257183651e-07  0.
5.308592475820039e-06 2.4903287612418843e-07  0.
6.618732159971449e-06 2.490129467724571e-07  0.
7.739808694543908e-06 2.58909522705007e-07  0.
8.806250488032877e-06 2.5269205770422983e-07  0.
9.870647405531737e-06 2.5360799236024457e-07  0.
1.093534540763558e-05 2.534726474208324e-07  0.
1.2e-05 2.534954485913635e-07  0.
0.0 0.0  0.
9.812809294570795e-07 -2.908141551416856e-07  0.
2.0582604056944477e-06 -2.4810734350447256e-07  0.
3.1208481944661955e-06 -2.5350237282344437e-07  0.
4.1875564078061885e-06 -2.587899257184899e-07  0.
5.308592475820065e-06 -2.490328761243669e-07  0.
6.618732159971474e-06 -2.4901294677269683e-07  0.
7.739808694543932e-06 -2.5890952270529526e-07  0.
8.806250488032895e-06 -2.5269205770455837e-07  0.
9.870647405531749e-06 -2.536079923606019e-07  0.
1.0935345407635585e-05 -2.534726474212036e-07  0.
1.2e-05 -2.5349544859173827e-07  0.
</DataArray>
<DataArray type="Float64" Name="Nodal_sigma_xx" NumberOfComponents="1" format="ascii" >
1.2999504887429457e-05 
1.2999504887429454e-05 
1.2999504887429454e-05 
1.2999504887429457e-05 
1.334069225498476e-05 
1.406288697095306e-05 
1.4062894130806972e-05 
1.3340699414838673e-05 
1.2999504887429464e-05 
1.2999504887429464e-05 
1.299950488742946e-05 
1.2999504887429462e-05 
1.2999504887429457e-05 
1.2999504887429454e-05 
1.2999504887429454e-05 
1.2999504887429457e-05 
1.334069225498476e-05 
1.406288697095306e-05 
1.4062894130806972e-05 
1.3340699414838673e-05 
1.2999504887429464e-05 
1.2999504887429464e-05 
1.299950488742946e-05 
1.2999504887429462e-05 
</DataArray>
<DataArray type="Float64" Name="Nodal_sigma_yy" NumberOfComponents="1" format="ascii" >
2.3754564337150358e-06 
1.0122292716026483e-06 
-1.4598809755218721e-07 
3.261887351819747e-10 
-3.6166524036539495e-08 
4.756555686560062e-08 
4.700581648795817e-08 
-3.2931109841166626e-08 
-2.1649721180572792e-08 
3.1906119408767436e-09 
-4.799701896288777e-10 
1.384021668133717e-10 
2.3754564337150358e-06 
1.0122292716026483e-06 
-1.4598809755218721e-07 
3.261887351819747e-10 
-3.6166524036539495e-08 
4.756555686560062e-08 
4.700581648795817e-08 
-3.2931109841166626e-08 
-2.1649721180572792e-08 
3.1906119408767436e-09 
-4.799701896288777e-10 
1.384021668133717e-10 
</DataArray>
<DataArray type="Float64" Name="Nodal_sigma_xy" NumberOfComponents="1" format="ascii" >
-3.520480687025686e-21 
-3.477467295172928e-21 
-2.9900511192260568e-21 
-2.29087670646561e-21 
-3.563287283725305e-21 
-7.126543063501499e-21 
-7.125715882888946e-21 
-3.81661134631967e-21 
-4.326361398805473e-21 
-2.0360921531022065e-21 
1.01806546359671e-21 
0.0 
-3.520480687025686e-21 
-3.477467295172928e-21 
-2.9900511192260568e-21 
-2.29087670646561e-21 
-3.563287283725305e-21 
-7.126543063501499e-21 
-7.125715882888946e-21 
-3.81661134631967e-21 
-4.326361398805473e-21 
-2.0360921531022065e-21 
1.01806546359671e-21 
0.0 
</DataArray>
</PointData>
<CellData>
</CellData>
<Points>
<DataArray type="Float64" Name="Points" NumberOfComponents="3" format="ascii">
0.0 0.0 0.0
9.0 0.0 0.0
18.0 0.0 0.0
27.0 0.0 0.0
36.0 0.0 0.0
45.0 0.5 0.0
55.0 0.5 0.0
64.0 0.0 0.0
73.0 0.0 0.0
82.0 0.0 0.0
91.0 0.0 0.0
100.0 0.0 0.0
0.0 10.0 0.0
9.0 10.0 0.0
18.0 10.0 0.0
27.0 10.0 0.0
36.0 10.0 0.0
45.0 9.5 0.0
55.0 9.5 0.0
64.0 10.0 0.0
73.0 10.0 0.0
82.0 10.0 0.0
91.0 10.0 0.0
100.0 10.0 0.0
</DataArray>
</Points>
<Cells>
<DataArray type="Int64" Name="connectivity" format="ascii">
0 1 13 12 
1 2 14 13 
2 3 15 14 
3 4 16 15 
4 5 17 16 
5 6 18 17 
6 7 19 18 
7 8 20 19 
8 9 21 20 
9 10 22 21 
10 11 23 22 
</DataArray>
<DataArray type="Int64" Name="offsets" format="ascii">
4
8
12
16
20
24
28
32
36
40
44
</DataArray>
<DataArray type="UInt8" Name="types" format="ascii" RangeMin="9" RangeMax="9">
9
9
9
9
9
9
9
9
9
9
9
</DataArray>
</Cells>
</Piece>
</UnstructuredGrid>
</VTKFile>
