<?xml version="1.0"?>
<VTKFile type="UnstructuredGrid" version="0.1" byte_order="LittleEndian" compressor="vtkZLibDataCompressor">
<UnstructuredGrid>
<Piece NumberOfPoints="24" NumberOfCells="11">
<PointData>
<DataArray type="Float64" Name="displacement" NumberOfComponents="3" format="ascii" >
0.0 0.0  0.
3.5571433692818916e-06 1.0542013123885866e-06  0.
7.4611939706423345e-06 8.993891202036268e-07  0.
1.1313074704939905e-05 9.189461014848058e-07  0.
1.5179891978297371e-05 9.381134807292321e-07  0.
1.924364772484768e-05 9.027441759504098e-07  0.
2.3992904079896545e-05 9.02671932050464e-07  0.
2.8056806517721708e-05 9.385470198060203e-07  0.
3.192265801911921e-05 9.160087091782552e-07  0.
3.578109684505257e-05 9.19328972306345e-07  0.
3.964062710267899e-05 9.188383469009903e-07  0.
4.3500000000000014e-05 9.18921001144168e-07  0.
0.0 0.0  0.
3.557143369281902e-06 -1.0542013123885979e-06  0.
7.461193970642354e-06 -8.993891202036674e-07  0.
1.131307470493993e-05 -9.189461014848905e-07  0.
1.5179891978297401e-05 -9.381134807293675e-07  0.
1.924364772484771e-05 -9.027441759506039e-07  0.
2.399290407989657e-05 -9.026719320507194e-07  0.
2.805680651772173e-05 -9.385470198063256e-07  0.
3.192265801911923e-05 -9.16008709178602e-07  0.
3.578109684505258e-05 -9.193289723067229e-07  0.
3.9640627102679e-05 -9.188383469013902e-07  0.
4.3500000000000014e-05 -9.189210011445752e-07  0.
</DataArray>
<DataArray type="Float64" Name="Nodal_sigma_xx" NumberOfComponents="1" format="ascii" >
4.7123205216931796e-05 
4.71232052169318e-05 
4.71232052169318e-05 
4.712320521693178e-05 
4.8360009424319775e-05 
5.097796526970489e-05 
5.09779912241753e-05 
4.836003537879019e-05 
4.712320521693182e-05 
4.7123205216931816e-05 
4.7123205216931816e-05 
4.7123205216931857e-05 
4.7123205216931796e-05 
4.71232052169318e-05 
4.71232052169318e-05 
4.712320521693178e-05 
4.8360009424319775e-05 
5.097796526970489e-05 
5.09779912241753e-05 
4.836003537879019e-05 
4.712320521693182e-05 
4.7123205216931816e-05 
4.7123205216931816e-05 
4.7123205216931857e-05 
</DataArray>
<DataArray type="Float64" Name="Nodal_sigma_yy" NumberOfComponents="1" format="ascii" >
8.611029572217003e-06 
3.669331109559604e-06 
-5.292068536266775e-07 
1.1824341650279615e-09 
-1.311036496324489e-07 
1.7242514363781674e-07 
1.703960847688538e-07 
-1.1937527317422796e-07 
-7.848023927957272e-08 
1.1565968285683278e-08 
-1.7398919373879529e-09 
5.017078547280127e-10 
8.611029572217003e-06 
3.669331109559604e-06 
-5.292068536266775e-07 
1.1824341650279615e-09 
-1.311036496324489e-07 
1.7242514363781674e-07 
1.703960847688538e-07 
-1.1937527317422796e-07 
-7.848023927957272e-08 
1.1565968285683278e-08 
-1.7398919373879529e-09 
5.017078547280127e-10 
</DataArray>
<DataArray type="Float64" Name="Nodal_sigma_xy" NumberOfComponents="1" format="ascii" >
-3.5998900258307764e-21 
-3.8381180422460484e-21 
-5.092123850876438e-21 
-5.089642309038779e-21 
-2.035691487493001e-21 
2.0361373895419555e-21 
-5.087542045764719e-21 
-9.160198103412228e-21 
-2.036518668105554e-21 
8.144549558167822e-21 
1.0180686947709777e-20 
4.072274779083911e-21 
-3.5998900258307764e-21 
-3.8381180422460484e-21 
-5.092123850876438e-21 
-5.089642309038779e-21 
-2.035691487493001e-21 
2.0361373895419555e-21 
-5.087542045764719e-21 
-9.160198103412228e-21 
-2.036518668105554e-21 
8.144549558167822e-21 
1.0180686947709777e-20 
4.072274779083911e-21 
</DataArray>
</PointData>
<CellData>
</CellData>
<Points>
<DataArray type="Float64" Name="Points" NumberOfComponents="3" format="ascii">
0.0 0.0 0.0
9.0 0.0 0.0
18.0 0.0 0.0
27.0 0.0 0.0
36.0 0.0 0.0
45.0 0.5 0.0
55.0 0.5 0.0
64.0 0.0 0.0
73.0 0.0 0.0
82.0 0.0 0.0
91.0 0.0 0.0
100.0 0.0 0.0
0.0 10.0 0.0
9.0 10.0 0.0
18.0 10.0 0.0
27.0 10.0 0.0
36.0 10.0 0.0
45.0 9.5 0.0
55.0 9.5 0.0
64.0 10.0 0.0
73.0 10.0 0.0
82.0 10.0 0.0
91.0 10.0 0.0
100.0 10.0 0.0
</DataArray>
</Points>
<Cells>
<DataArray type="Int64" Name="connectivity" format="ascii">
0 1 13 12 
1 2 14 13 
2 3 15 14 
3 4 16 15 
4 5 17 16 
5 6 18 17 
6 7 19 18 
7 8 20 19 
8 9 21 20 
9 10 22 21 
10 11 23 22 
</DataArray>
<DataArray type="Int64" Name="offsets" format="ascii">
4
8
12
16
20
24
28
32
36
40
44
</DataArray>
<DataArray type="UInt8" Name="types" format="ascii" RangeMin="9" RangeMax="9">
9
9
9
9
9
9
9
9
9
9
9
</DataArray>
</Cells>
</Piece>
</UnstructuredGrid>
</VTKFile>
