<?xml version="1.0"?>
<VTKFile type="UnstructuredGrid" version="0.1" byte_order="LittleEndian" compressor="vtkZLibDataCompressor">
<UnstructuredGrid>
<Piece NumberOfPoints="24" NumberOfCells="11">
<PointData>
<DataArray type="Float64" Name="displacement" NumberOfComponents="3" format="ascii" >
0.0 0.0  0.
7.23694685474592e-06 2.144754394169889e-06  0.
1.5179670491996476e-05 1.8297916583453362e-06  0.
2.3016255434188085e-05 1.8695799995725913e-06  0.
3.088322850757052e-05 1.9085757021733567e-06  0.
3.915086950917287e-05 1.8366174614164847e-06  0.
4.881314967978951e-05 1.836470482447678e-06  0.
5.7081089122261394e-05 1.909457729950403e-06  0.
6.494609734924252e-05 1.863603925569806e-06  0.
7.279602461579658e-05 1.8703589436580082e-06  0.
8.06481723813124e-05 1.8693607747298848e-06  0.
8.849999999999997e-05 1.8695289333625647e-06  0.
0.0 0.0  0.
7.236946854745928e-06 -2.1447543941698967e-06  0.
1.5179670491996488e-05 -1.8297916583453638e-06  0.
2.3016255434188105e-05 -1.8695799995726513e-06  0.
3.0883228507570534e-05 -1.9085757021734486e-06  0.
3.9150869509172884e-05 -1.8366174614166104e-06  0.
4.881314967978953e-05 -1.8364704824478305e-06  0.
5.708108912226141e-05 -1.9094577299505742e-06  0.
6.494609734924253e-05 -1.8636039255700057e-06  0.
7.27960246157966e-05 -1.8703589436582322e-06  0.
8.064817238131241e-05 -1.8693607747301287e-06  0.
8.849999999999997e-05 -1.8695289333628067e-06  0.
</DataArray>
<DataArray type="Float64" Name="Nodal_sigma_xx" NumberOfComponents="1" format="ascii" >
9.587134854479221e-05 
9.58713485447922e-05 
9.587134854479221e-05 
9.587134854479223e-05 
9.838760538051261e-05 
0.00010371379141077886 
0.00010371384421470142 
9.83876581844352e-05 
9.587134854479229e-05 
9.587134854479223e-05 
9.587134854479217e-05 
9.587134854479218e-05 
9.587134854479221e-05 
9.58713485447922e-05 
9.587134854479221e-05 
9.587134854479223e-05 
9.838760538051261e-05 
0.00010371379141077886 
0.00010371384421470142 
9.83876581844352e-05 
9.587134854479229e-05 
9.587134854479223e-05 
9.587134854479217e-05 
9.587134854479218e-05 
</DataArray>
<DataArray type="Float64" Name="Nodal_sigma_yy" NumberOfComponents="1" format="ascii" >
1.7518991198648377e-05 
7.465190878069531e-06 
-1.076662219447377e-06 
2.4056419219646547e-09 
-2.6672811476946976e-07 
3.507959818838245e-07 
3.466678965987066e-07 
-2.428669350785918e-07 
-1.596666937067174e-07 
2.353076306395836e-08 
-3.539780148522926e-09 
1.0207159802436399e-09 
1.7518991198648377e-05 
7.465190878069531e-06 
-1.076662219447377e-06 
2.4056419219646547e-09 
-2.6672811476946976e-07 
3.507959818838245e-07 
3.466678965987066e-07 
-2.428669350785918e-07 
-1.596666937067174e-07 
2.353076306395836e-08 
-3.539780148522926e-09 
1.0207159802436399e-09 
</DataArray>
<DataArray type="Float64" Name="Nodal_sigma_xy" NumberOfComponents="1" format="ascii" >
-3.1763735522036263e-21 
-2.3425754947501744e-21 
-3.8083395401941394e-21 
-7.126988157756886e-21 
-1.2219112008633325e-20 
-4.073806355686841e-21 
4.065650871834951e-21 
-6.116173449217087e-21 
-2.037345848718107e-21 
4.072210155598555e-21 
8.144549558167822e-21 
1.6289099116335644e-20 
-3.1763735522036263e-21 
-2.3425754947501744e-21 
-3.8083395401941394e-21 
-7.126988157756886e-21 
-1.2219112008633325e-20 
-4.073806355686841e-21 
4.065650871834951e-21 
-6.116173449217087e-21 
-2.037345848718107e-21 
4.072210155598555e-21 
8.144549558167822e-21 
1.6289099116335644e-20 
</DataArray>
</PointData>
<CellData>
</CellData>
<Points>
<DataArray type="Float64" Name="Points" NumberOfComponents="3" format="ascii">
0.0 0.0 0.0
9.0 0.0 0.0
18.0 0.0 0.0
27.0 0.0 0.0
36.0 0.0 0.0
45.0 0.5 0.0
55.0 0.5 0.0
64.0 0.0 0.0
73.0 0.0 0.0
82.0 0.0 0.0
91.0 0.0 0.0
100.0 0.0 0.0
0.0 10.0 0.0
9.0 10.0 0.0
18.0 10.0 0.0
27.0 10.0 0.0
36.0 10.0 0.0
45.0 9.5 0.0
55.0 9.5 0.0
64.0 10.0 0.0
73.0 10.0 0.0
82.0 10.0 0.0
91.0 10.0 0.0
100.0 10.0 0.0
</DataArray>
</Points>
<Cells>
<DataArray type="Int64" Name="connectivity" format="ascii">
0 1 13 12 
1 2 14 13 
2 3 15 14 
3 4 16 15 
4 5 17 16 
5 6 18 17 
6 7 19 18 
7 8 20 19 
8 9 21 20 
9 10 22 21 
10 11 23 22 
</DataArray>
<DataArray type="Int64" Name="offsets" format="ascii">
4
8
12
16
20
24
28
32
36
40
44
</DataArray>
<DataArray type="UInt8" Name="types" format="ascii" RangeMin="9" RangeMax="9">
9
9
9
9
9
9
9
9
9
9
9
</DataArray>
</Cells>
</Piece>
</UnstructuredGrid>
</VTKFile>
