<?xml version="1.0"?>
<VTKFile type="UnstructuredGrid" version="0.1" byte_order="LittleEndian" compressor="vtkZLibDataCompressor">
<UnstructuredGrid>
<Piece NumberOfPoints="24" NumberOfCells="11">
<PointData>
<DataArray type="Float64" Name="displacement" NumberOfComponents="3" format="ascii" >
0.0 0.0  0.
6.782861340421069e-06 2.0096982899202196e-06  0.
1.4228693136732038e-05 1.7188122930478616e-06  0.
2.156535434929555e-05 1.726663443167506e-06  0.
2.8996238826109566e-05 1.9630948299935553e-06  0.
4.105542219385368e-05 4.263148229570481e-06  0.
7.3932184683004e-05 4.2658911541725906e-06  0.
8.60013575454147e-05 1.964864618049473e-06  0.
9.343071038017297e-05 1.7209227312631173e-06  0.
0.00010077983262139986 1.756859375560634e-06  0.
0.00010814076790003237 1.7515491245368505e-06  0.
0.0001154999999999999 1.7524437271699252e-06  0.
0.0 0.0  0.
6.782861340421082e-06 -2.0096982899202323e-06  0.
1.4228693136732059e-05 -1.7188122930479043e-06  0.
2.1565354349295577e-05 -1.726663443167594e-06  0.
2.899623882610959e-05 -1.9630948299936913e-06  0.
4.105542219385372e-05 -4.263148229570683e-06  0.
7.393218468300402e-05 -4.265891154172877e-06  0.
8.600135754541472e-05 -1.964864618049822e-06  0.
9.343071038017301e-05 -1.720922731263527e-06  0.
0.00010077983262139989 -1.7568593755611237e-06  0.
0.00010814076790003238 -1.751549124537379e-06  0.
0.0001154999999999999 -1.7524437271704532e-06  0.
</DataArray>
<DataArray type="Float64" Name="Nodal_sigma_xx" NumberOfComponents="1" format="ascii" >
8.985864102598916e-05 
8.985864102598915e-05 
8.985864102598916e-05 
8.985864102598919e-05 
9.195585947031227e-05 
9.11897689383904e-05 
9.118810806041951e-05 
9.195419859234143e-05 
8.985864102598913e-05 
8.985864102598905e-05 
8.985864102598912e-05 
8.985864102598913e-05 
8.985864102598916e-05 
8.985864102598915e-05 
8.985864102598916e-05 
8.985864102598919e-05 
9.195585947031227e-05 
9.11897689383904e-05 
9.118810806041951e-05 
9.195419859234143e-05 
8.985864102598913e-05 
8.985864102598905e-05 
8.985864102598912e-05 
8.985864102598913e-05 
</DataArray>
<DataArray type="Float64" Name="Nodal_sigma_yy" NumberOfComponents="1" format="ascii" >
1.6426249561465387e-05 
6.9822259732902036e-06 
-9.066610942658742e-07 
-6.937363151068764e-07 
-4.4954774147190395e-06 
3.593027756548771e-06 
3.5963904228717182e-06 
-4.470296485493847e-06 
-8.494255830220788e-07 
1.2518347859862495e-07 
-1.8831603176632742e-08 
5.43020116782153e-09 
1.6426249561465387e-05 
6.9822259732902036e-06 
-9.066610942658742e-07 
-6.937363151068764e-07 
-4.4954774147190395e-06 
3.593027756548771e-06 
3.5963904228717182e-06 
-4.470296485493847e-06 
-8.494255830220788e-07 
1.2518347859862495e-07 
-1.8831603176632742e-08 
5.43020116782153e-09 
</DataArray>
<DataArray type="Float64" Name="Nodal_sigma_xy" NumberOfComponents="1" format="ascii" >
-4.0234064994579266e-21 
-3.0307897643942934e-21 
-3.564321259490996e-21 
-4.583407774156326e-21 
-3.943997160652836e-21 
-3.7603372152719215e-21 
-2.0489237923544353e-20 
-1.8634724839594607e-20 
-2.4434915294816438e-20 
-4.0724169507516935e-20 
-1.0339757656912846e-25 
3.2578301630247857e-20 
-4.0234064994579266e-21 
-3.0307897643942934e-21 
-3.564321259490996e-21 
-4.583407774156326e-21 
-3.943997160652836e-21 
-3.7603372152719215e-21 
-2.0489237923544353e-20 
-1.8634724839594607e-20 
-2.4434915294816438e-20 
-4.0724169507516935e-20 
-1.0339757656912846e-25 
3.2578301630247857e-20 
</DataArray>
</PointData>
<CellData>
</CellData>
<Points>
<DataArray type="Float64" Name="Points" NumberOfComponents="3" format="ascii">
0.0 0.0 0.0
9.0 0.0 0.0
18.0 0.0 0.0
27.0 0.0 0.0
36.0 0.0 0.0
45.0 0.5 0.0
55.0 0.5 0.0
64.0 0.0 0.0
73.0 0.0 0.0
82.0 0.0 0.0
91.0 0.0 0.0
100.0 0.0 0.0
0.0 10.0 0.0
9.0 10.0 0.0
18.0 10.0 0.0
27.0 10.0 0.0
36.0 10.0 0.0
45.0 9.5 0.0
55.0 9.5 0.0
64.0 10.0 0.0
73.0 10.0 0.0
82.0 10.0 0.0
91.0 10.0 0.0
100.0 10.0 0.0
</DataArray>
</Points>
<Cells>
<DataArray type="Int64" Name="connectivity" format="ascii">
0 1 13 12 
1 2 14 13 
2 3 15 14 
3 4 16 15 
4 5 17 16 
5 6 18 17 
6 7 19 18 
7 8 20 19 
8 9 21 20 
9 10 22 21 
10 11 23 22 
</DataArray>
<DataArray type="Int64" Name="offsets" format="ascii">
4
8
12
16
20
24
28
32
36
40
44
</DataArray>
<DataArray type="UInt8" Name="types" format="ascii" RangeMin="9" RangeMax="9">
9
9
9
9
9
9
9
9
9
9
9
</DataArray>
</Cells>
</Piece>
</UnstructuredGrid>
</VTKFile>
