<?xml version="1.0"?>
<VTKFile type="UnstructuredGrid" version="0.1" byte_order="LittleEndian" compressor="vtkZLibDataCompressor">
<UnstructuredGrid>
<Piece NumberOfPoints="24" NumberOfCells="11">
<PointData>
<DataArray type="Float64" Name="displacement" NumberOfComponents="3" format="ascii" >
0.0 0.0  0.
-5.748422915140348e-102 -6.836716573831967e-102  0.
-9.431878375327367e-102 -2.171006324261743e-101  0.
-1.1468940864673218e-101 -4.1299349099066577e-101  0.
-1.2027040176822767e-101 -6.273036268560923e-101  0.
-1.0659696862056373e-101 -8.282193792299297e-101  0.
0.00014099999999999996 -3.328925565829062e-06  0.
0.00014099999999999996 -3.328925565829089e-06  0.
0.00014099999999999996 -3.3289255658291003e-06  0.
0.00014099999999999996 -3.3289255658291194e-06  0.
0.00014099999999999998 -3.3289255658291164e-06  0.
0.00014099999999999998 -3.328925565829115e-06  0.
0.0 0.0  0.
5.497278224673051e-102 -6.753001677009535e-102  0.
8.95749396000025e-102 -2.1654253311402475e-101  0.
1.0715506793271328e-101 -4.118772923663667e-101  0.
1.102246141495358e-101 -6.250712296074941e-101  0.
9.93416775626196e-102 -8.326841737271261e-101  0.
0.00014099999999999998 -3.328925565829059e-06  0.
0.00014099999999999998 -3.3289255658290906e-06  0.
0.00014099999999999998 -3.3289255658290995e-06  0.
0.00014099999999999998 -3.328925565829119e-06  0.
0.00014099999999999998 -3.328925565829117e-06  0.
0.00014099999999999998 -3.3289255658291147e-06  0.
</DataArray>
<DataArray type="Float64" Name="Nodal_sigma_xx" NumberOfComponents="1" format="ascii" >
-1.6367335596693526e-102 
-1.4518929755172487e-102 
-1.4354958269231064e-102 
-1.2581084921319966e-102 
1.4921736792009123e-104 
4.710605976834717e-103 
2.1026838996366955e-20 
2.0263287661702623e-20 
1.5271026693286663e-21 
5.968426265959537e-20 
5.739360865560237e-20 
0.0 
-1.6367335596693526e-102 
-1.4518929755172487e-102 
-1.4354958269231064e-102 
-1.2581084921319966e-102 
1.4921736792009123e-104 
4.710605976834717e-103 
2.1026838996366955e-20 
2.0263287661702623e-20 
1.5271026693286663e-21 
5.968426265959537e-20 
5.739360865560237e-20 
0.0 
</DataArray>
<DataArray type="Float64" Name="Nodal_sigma_yy" NumberOfComponents="1" format="ascii" >
-2.4148527929547545e-103 
-8.943899233154852e-105 
2.280694304457385e-103 
8.407265279175778e-103 
5.138020036927539e-103 
-2.106538341936683e-103 
1.1610786473741851e-20 
9.829166692858408e-21 
3.5632395617668884e-21 
3.0669311942350713e-20 
2.532445259970038e-20 
0.0 
-2.4148527929547545e-103 
-8.943899233154852e-105 
2.280694304457385e-103 
8.407265279175778e-103 
5.138020036927539e-103 
-2.106538341936683e-103 
1.1610786473741851e-20 
9.829166692858408e-21 
3.5632395617668884e-21 
3.0669311942350713e-20 
2.532445259970038e-20 
0.0 
</DataArray>
<DataArray type="Float64" Name="Nodal_sigma_xy" NumberOfComponents="1" format="ascii" >
-7.41151116455009e-102 
-7.02096089803518e-102 
-6.099739277019098e-102 
-4.963864074407037e-102 
-1.83083876497176e-102 
3.4849134817631376e-103 
-4.596737290410361e-21 
2.798145298860119e-20 
3.2578190279011556e-20 
1.6289095139505778e-20 
-1.6289095139505778e-20 
-6.515638055802311e-20 
-7.41151116455009e-102 
-7.02096089803518e-102 
-6.099739277019098e-102 
-4.963864074407037e-102 
-1.83083876497176e-102 
3.4849134817631376e-103 
-4.596737290410361e-21 
2.798145298860119e-20 
3.2578190279011556e-20 
1.6289095139505778e-20 
-1.6289095139505778e-20 
-6.515638055802311e-20 
</DataArray>
</PointData>
<CellData>
</CellData>
<Points>
<DataArray type="Float64" Name="Points" NumberOfComponents="3" format="ascii">
0.0 0.0 0.0
9.0 0.0 0.0
18.0 0.0 0.0
27.0 0.0 0.0
36.0 0.0 0.0
45.0 0.5 0.0
55.0 0.5 0.0
64.0 0.0 0.0
73.0 0.0 0.0
82.0 0.0 0.0
91.0 0.0 0.0
100.0 0.0 0.0
0.0 10.0 0.0
9.0 10.0 0.0
18.0 10.0 0.0
27.0 10.0 0.0
36.0 10.0 0.0
45.0 9.5 0.0
55.0 9.5 0.0
64.0 10.0 0.0
73.0 10.0 0.0
82.0 10.0 0.0
91.0 10.0 0.0
100.0 10.0 0.0
</DataArray>
</Points>
<Cells>
<DataArray type="Int64" Name="connectivity" format="ascii">
0 1 13 12 
1 2 14 13 
2 3 15 14 
3 4 16 15 
4 5 17 16 
5 6 18 17 
6 7 19 18 
7 8 20 19 
8 9 21 20 
9 10 22 21 
10 11 23 22 
</DataArray>
<DataArray type="Int64" Name="offsets" format="ascii">
4
8
12
16
20
24
28
32
36
40
44
</DataArray>
<DataArray type="UInt8" Name="types" format="ascii" RangeMin="9" RangeMax="9">
9
9
9
9
9
9
9
9
9
9
9
</DataArray>
</Cells>
</Piece>
</UnstructuredGrid>
</VTKFile>
