<?xml version="1.0"?>
<VTKFile type="UnstructuredGrid" version="0.1" byte_order="LittleEndian" compressor="vtkZLibDataCompressor">
<UnstructuredGrid>
<Piece NumberOfPoints="24" NumberOfCells="11">
<PointData>
<DataArray type="Float64" Name="displacement" NumberOfComponents="3" format="ascii" >
0.0 0.0  0.
7.423471599906273e-06 2.1995774808434137e-06  0.
1.557230651291152e-05 1.8805715524788038e-06  0.
2.3603113784663563e-05 1.8935798924091388e-06  0.
3.172718292321532e-05 2.122361577515045e-06  0.
4.29515080212353e-05 3.243162310834511e-06  0.
6.29935488583836e-05 3.244070523002209e-06  0.
7.42230928336174e-05 2.123880842371007e-06  0.
8.234534834270104e-05 1.8873586252279686e-06  0.
9.038981353002101e-05 1.9222022303910953e-06  0.
9.844573245263496e-05 1.917053494508649e-06  0.
0.00010649999999999992 1.9179208871529546e-06  0.
0.0 0.0  0.
7.423471599906285e-06 -2.1995774808434247e-06  0.
1.557230651291154e-05 -1.8805715524788463e-06  0.
2.3603113784663597e-05 -1.8935798924092307e-06  0.
3.172718292321537e-05 -2.1223615775152095e-06  0.
4.295150802123535e-05 -3.2431623108347713e-06  0.
6.299354885838364e-05 -3.2440705230025745e-06  0.
7.422309283361746e-05 -2.123880842371472e-06  0.
8.234534834270108e-05 -1.8873586252285114e-06  0.
9.038981353002102e-05 -1.922202230391695e-06  0.
9.844573245263497e-05 -1.917053494509262e-06  0.
0.00010649999999999992 -1.917920887153569e-06  0.
</DataArray>
<DataArray type="Float64" Name="Nodal_sigma_xx" NumberOfComponents="1" format="ascii" >
9.834496154074085e-05 
9.834496154074083e-05 
9.834496154074082e-05 
9.834496154074085e-05 
9.903709877200889e-05 
9.95290833374779e-05 
9.95263527335599e-05 
9.903436816809096e-05 
9.834496154074093e-05 
9.83449615407408e-05 
9.834496154074082e-05 
9.83449615407409e-05 
9.834496154074085e-05 
9.834496154074083e-05 
9.834496154074082e-05 
9.834496154074085e-05 
9.903709877200889e-05 
9.95290833374779e-05 
9.95263527335599e-05 
9.903436816809096e-05 
9.834496154074093e-05 
9.83449615407408e-05 
9.834496154074082e-05 
9.83449615407409e-05 
</DataArray>
<DataArray type="Float64" Name="Nodal_sigma_yy" NumberOfComponents="1" format="ascii" >
1.7976659552148064e-05 
7.643848824242424e-06 
-1.0076564727058844e-06 
-6.548676628271294e-07 
-2.5115678925756104e-06 
2.5270448630050283e-06 
2.5274127689197824e-06 
-2.4853648090518576e-06 
-8.235896870402413e-07 
1.2137593218569308e-07 
-1.8258826290024752e-08 
5.265037655790579e-09 
1.7976659552148064e-05 
7.643848824242424e-06 
-1.0076564727058844e-06 
-6.548676628271294e-07 
-2.5115678925756104e-06 
2.5270448630050283e-06 
2.5274127689197824e-06 
-2.4853648090518576e-06 
-8.235896870402413e-07 
1.2137593218569308e-07 
-1.8258826290024752e-08 
5.265037655790579e-09 
</DataArray>
<DataArray type="Float64" Name="Nodal_sigma_xy" NumberOfComponents="1" format="ascii" >
2.117582368135751e-22 
-2.6999175193730823e-21 
-3.823228791220094e-21 
-3.0556051827708842e-21 
1.0852609636695723e-21 
4.0095512241976634e-21 
-5.201932077192853e-21 
2.064642808932357e-21 
8.152692117322641e-21 
2.4433674523897608e-20 
4.8867349047795216e-20 
4.8867349047795216e-20 
2.117582368135751e-22 
-2.6999175193730823e-21 
-3.823228791220094e-21 
-3.0556051827708842e-21 
1.0852609636695723e-21 
4.0095512241976634e-21 
-5.201932077192853e-21 
2.064642808932357e-21 
8.152692117322641e-21 
2.4433674523897608e-20 
4.8867349047795216e-20 
4.8867349047795216e-20 
</DataArray>
</PointData>
<CellData>
</CellData>
<Points>
<DataArray type="Float64" Name="Points" NumberOfComponents="3" format="ascii">
0.0 0.0 0.0
9.0 0.0 0.0
18.0 0.0 0.0
27.0 0.0 0.0
36.0 0.0 0.0
45.0 0.5 0.0
55.0 0.5 0.0
64.0 0.0 0.0
73.0 0.0 0.0
82.0 0.0 0.0
91.0 0.0 0.0
100.0 0.0 0.0
0.0 10.0 0.0
9.0 10.0 0.0
18.0 10.0 0.0
27.0 10.0 0.0
36.0 10.0 0.0
45.0 9.5 0.0
55.0 9.5 0.0
64.0 10.0 0.0
73.0 10.0 0.0
82.0 10.0 0.0
91.0 10.0 0.0
100.0 10.0 0.0
</DataArray>
</Points>
<Cells>
<DataArray type="Int64" Name="connectivity" format="ascii">
0 1 13 12 
1 2 14 13 
2 3 15 14 
3 4 16 15 
4 5 17 16 
5 6 18 17 
6 7 19 18 
7 8 20 19 
8 9 21 20 
9 10 22 21 
10 11 23 22 
</DataArray>
<DataArray type="Int64" Name="offsets" format="ascii">
4
8
12
16
20
24
28
32
36
40
44
</DataArray>
<DataArray type="UInt8" Name="types" format="ascii" RangeMin="9" RangeMax="9">
9
9
9
9
9
9
9
9
9
9
9
</DataArray>
</Cells>
</Piece>
</UnstructuredGrid>
</VTKFile>
