<?xml version="1.0"?>
<VTKFile type="UnstructuredGrid" version="0.1" byte_order="LittleEndian" compressor="vtkZLibDataCompressor">
<UnstructuredGrid>
<Piece NumberOfPoints="24" NumberOfCells="11">
<PointData>
<DataArray type="Float64" Name="displacement" NumberOfComponents="3" format="ascii" >
0.0 0.0  0.
3.9372364920974046e-07 1.1670840050086557e-07  0.
8.257720620342899e-07 9.936049826050055e-08  0.
1.2525233101862722e-06 1.0297501060882165e-07  0.
1.6776902763343145e-06 9.525310047223493e-08  0.
2.4305144873945806e-06 3.9807349784191745e-07  0.
0.00012803965906881774 3.9843234578463667e-07  0.
0.00012879315677703584 9.53443696931264e-08  0.
0.00012921823109486764 1.026435420461767e-07  0.
0.00012964570605384352 1.0156825414053425e-07  0.
0.00013007282754586393 1.017271462355278e-07  0.
0.00013049999999999992 1.0170037814376247e-07  0.
0.0 0.0  0.
3.937236492097968e-07 -1.1670840050092264e-07  0.
8.257720620343949e-07 -9.936049826070924e-08  0.
1.252523310186417e-06 -1.0297501060926274e-07  0.
1.6776902763344873e-06 -9.525310047296846e-08  0.
2.430514487394765e-06 -3.980734978429957e-07  0.
0.00012803965906881784 -3.984323457882656e-07  0.
0.00012879315677703595 -9.53443696969535e-08  0.
0.00012921823109486772 -1.0264354205019809e-07  0.
0.0001296457060538436 -1.0156825414471298e-07  0.
0.00013007282754586396 -1.017271462398121e-07  0.
0.00013049999999999992 -1.0170037814808403e-07  0.
</DataArray>
<DataArray type="Float64" Name="Nodal_sigma_xx" NumberOfComponents="1" format="ascii" >
5.215711245974287e-06 
5.215711245974289e-06 
5.215711245974292e-06 
5.2157112459742775e-06 
5.337493857709608e-06 
2.7296382347224756e-06 
2.7296362733996893e-06 
5.337491896386711e-06 
5.215711245974187e-06 
5.215711245974195e-06 
5.215711245974317e-06 
5.215711245974575e-06 
5.215711245974287e-06 
5.215711245974289e-06 
5.215711245974292e-06 
5.2157112459742775e-06 
5.337493857709608e-06 
2.7296382347224756e-06 
2.7296362733996893e-06 
5.337491896386711e-06 
5.215711245974187e-06 
5.215711245974195e-06 
5.215711245974317e-06 
5.215711245974575e-06 
</DataArray>
<DataArray type="Float64" Name="Nodal_sigma_yy" NumberOfComponents="1" format="ascii" >
9.527949240890444e-07 
4.068581204593484e-07 
-6.362049695138151e-08 
3.4405808981882117e-08 
-6.695263003201784e-07 
-6.980132646682682e-07 
-6.980338058515909e-07 
-6.68227064918842e-07 
2.541631457114404e-08 
-3.7457109072383215e-09 
5.634748467576636e-10 
-1.6248121521770088e-10 
9.527949240890444e-07 
4.068581204593484e-07 
-6.362049695138151e-08 
3.4405808981882117e-08 
-6.695263003201784e-07 
-6.980132646682682e-07 
-6.980338058515909e-07 
-6.68227064918842e-07 
2.541631457114404e-08 
-3.7457109072383215e-09 
5.634748467576636e-10 
-1.6248121521770088e-10 
</DataArray>
<DataArray type="Float64" Name="Nodal_sigma_xy" NumberOfComponents="1" format="ascii" >
-1.3698110943878138e-20 
-1.36741227061141e-20 
-1.474676916544224e-20 
-1.4921304274690928e-20 
-1.1618578883919827e-20 
-4.6189765404961065e-21 
1.028350937525924e-20 
-3.043900577103259e-20 
-5.701156256383919e-20 
-4.886723918787011e-20 
-4.072273971290344e-20 
-1.6289095885161376e-20 
-1.3698110943878138e-20 
-1.36741227061141e-20 
-1.474676916544224e-20 
-1.4921304274690928e-20 
-1.1618578883919827e-20 
-4.6189765404961065e-21 
1.028350937525924e-20 
-3.043900577103259e-20 
-5.701156256383919e-20 
-4.886723918787011e-20 
-4.072273971290344e-20 
-1.6289095885161376e-20 
</DataArray>
</PointData>
<CellData>
</CellData>
<Points>
<DataArray type="Float64" Name="Points" NumberOfComponents="3" format="ascii">
0.0 0.0 0.0
9.0 0.0 0.0
18.0 0.0 0.0
27.0 0.0 0.0
36.0 0.0 0.0
45.0 0.5 0.0
55.0 0.5 0.0
64.0 0.0 0.0
73.0 0.0 0.0
82.0 0.0 0.0
91.0 0.0 0.0
100.0 0.0 0.0
0.0 10.0 0.0
9.0 10.0 0.0
18.0 10.0 0.0
27.0 10.0 0.0
36.0 10.0 0.0
45.0 9.5 0.0
55.0 9.5 0.0
64.0 10.0 0.0
73.0 10.0 0.0
82.0 10.0 0.0
91.0 10.0 0.0
100.0 10.0 0.0
</DataArray>
</Points>
<Cells>
<DataArray type="Int64" Name="connectivity" format="ascii">
0 1 13 12 
1 2 14 13 
2 3 15 14 
3 4 16 15 
4 5 17 16 
5 6 18 17 
6 7 19 18 
7 8 20 19 
8 9 21 20 
9 10 22 21 
10 11 23 22 
</DataArray>
<DataArray type="Int64" Name="offsets" format="ascii">
4
8
12
16
20
24
28
32
36
40
44
</DataArray>
<DataArray type="UInt8" Name="types" format="ascii" RangeMin="9" RangeMax="9">
9
9
9
9
9
9
9
9
9
9
9
</DataArray>
</Cells>
</Piece>
</UnstructuredGrid>
</VTKFile>
