<?xml version="1.0"?>
<VTKFile type="UnstructuredGrid" version="0.1" byte_order="LittleEndian" compressor="vtkZLibDataCompressor">
<UnstructuredGrid>
<Piece NumberOfPoints="24" NumberOfCells="11">
<PointData>
<DataArray type="Float64" Name="displacement" NumberOfComponents="3" format="ascii" >
0.0 0.0  0.
1.2266011618212806e-07 3.635176939270349e-08  0.
2.572825507117935e-07 3.1013417938033566e-08  0.
3.901060243082577e-07 3.168779660287794e-08  0.
5.234445509757539e-07 3.234874071472515e-08  0.
6.635740594774888e-07 3.112910951542224e-08  0.
8.273415199964152e-07 3.112661834642019e-08  0.
9.674760868179729e-07 3.2363690337959705e-08  0.
1.1007813110040969e-06 3.158650721283767e-08  0.
1.2338309256914582e-06 3.170099904482033e-08  0.
1.3669181759544426e-06 3.168408092738135e-08  0.
1.5e-06 3.168693107369302e-08  0.
0.0 0.0  0.
1.226601161821405e-07 -3.6351769392716605e-08  0.
2.57282550711816e-07 -3.101341793807999e-08  0.
3.901060243082878e-07 -3.168779660297363e-08  0.
5.234445509757892e-07 -3.23487407148816e-08  0.
6.635740594775233e-07 -3.1129109515647035e-08  0.
8.273415199964488e-07 -3.112661834672388e-08  0.
9.674760868180057e-07 -3.236369033832812e-08  0.
1.1007813110041233e-06 -3.1586507213260915e-08  0.
1.2338309256914766e-06 -3.170099904528565e-08  0.
1.3669181759544526e-06 -3.168408092787329e-08  0.
1.5e-06 -3.1686931074194665e-08  0.
</DataArray>
<DataArray type="Float64" Name="Nodal_sigma_xx" NumberOfComponents="1" format="ascii" >
1.6249381109286809e-06 
1.624938110928681e-06 
1.6249381109286815e-06 
1.6249381109286813e-06 
1.667586531873093e-06 
1.7578608713691302e-06 
1.75786176635087e-06 
1.6675874268548344e-06 
1.6249381109286842e-06 
1.6249381109286857e-06 
1.6249381109286855e-06 
1.6249381109286842e-06 
1.6249381109286809e-06 
1.624938110928681e-06 
1.6249381109286815e-06 
1.6249381109286813e-06 
1.667586531873093e-06 
1.7578608713691302e-06 
1.75786176635087e-06 
1.6675874268548344e-06 
1.6249381109286842e-06 
1.6249381109286857e-06 
1.6249381109286855e-06 
1.6249381109286842e-06 
</DataArray>
<DataArray type="Float64" Name="Nodal_sigma_yy" NumberOfComponents="1" format="ascii" >
2.969320542143791e-07 
1.2652865895033103e-07 
-1.8248512194023296e-08 
4.077359189782625e-11 
-4.52081550456704e-09 
5.9456946082008185e-09 
5.875727060995526e-09 
-4.116388730145656e-09 
-2.706215147572102e-09 
3.988264926092753e-10 
-5.99962737034509e-11 
1.730027085177734e-11 
2.969320542143791e-07 
1.2652865895033103e-07 
-1.8248512194023296e-08 
4.077359189782625e-11 
-4.52081550456704e-09 
5.9456946082008185e-09 
5.875727060995526e-09 
-4.116388730145656e-09 
-2.706215147572102e-09 
3.988264926092753e-10 
-5.99962737034509e-11 
1.730027085177734e-11 
</DataArray>
<DataArray type="Float64" Name="Nodal_sigma_xy" NumberOfComponents="1" format="ascii" >
-4.096198393362593e-21 
-4.028576378286383e-21 
-3.968890127211854e-21 
-3.945005287024385e-21 
-4.151722891980215e-21 
-5.3129652214793454e-21 
-5.090350239126012e-21 
-3.5632355849370204e-21 
-3.372337809196267e-21 
-2.799685679445921e-21 
-1.7816192061072524e-21 
-1.5271026382596831e-21 
-4.096198393362593e-21 
-4.028576378286383e-21 
-3.968890127211854e-21 
-3.945005287024385e-21 
-4.151722891980215e-21 
-5.3129652214793454e-21 
-5.090350239126012e-21 
-3.5632355849370204e-21 
-3.372337809196267e-21 
-2.799685679445921e-21 
-1.7816192061072524e-21 
-1.5271026382596831e-21 
</DataArray>
</PointData>
<CellData>
</CellData>
<Points>
<DataArray type="Float64" Name="Points" NumberOfComponents="3" format="ascii">
0.0 0.0 0.0
9.0 0.0 0.0
18.0 0.0 0.0
27.0 0.0 0.0
36.0 0.0 0.0
45.0 0.5 0.0
55.0 0.5 0.0
64.0 0.0 0.0
73.0 0.0 0.0
82.0 0.0 0.0
91.0 0.0 0.0
100.0 0.0 0.0
0.0 10.0 0.0
9.0 10.0 0.0
18.0 10.0 0.0
27.0 10.0 0.0
36.0 10.0 0.0
45.0 9.5 0.0
55.0 9.5 0.0
64.0 10.0 0.0
73.0 10.0 0.0
82.0 10.0 0.0
91.0 10.0 0.0
100.0 10.0 0.0
</DataArray>
</Points>
<Cells>
<DataArray type="Int64" Name="connectivity" format="ascii">
0 1 13 12 
1 2 14 13 
2 3 15 14 
3 4 16 15 
4 5 17 16 
5 6 18 17 
6 7 19 18 
7 8 20 19 
8 9 21 20 
9 10 22 21 
10 11 23 22 
</DataArray>
<DataArray type="Int64" Name="offsets" format="ascii">
4
8
12
16
20
24
28
32
36
40
44
</DataArray>
<DataArray type="UInt8" Name="types" format="ascii" RangeMin="9" RangeMax="9">
9
9
9
9
9
9
9
9
9
9
9
</DataArray>
</Cells>
</Piece>
</UnstructuredGrid>
</VTKFile>
