<?xml version="1.0"?>
<VTKFile type="UnstructuredGrid" version="0.1" byte_order="LittleEndian" compressor="vtkZLibDataCompressor">
<UnstructuredGrid>
<Piece NumberOfPoints="24" NumberOfCells="11">
<PointData>
<DataArray type="Float64" Name="displacement" NumberOfComponents="3" format="ascii" >
0.0 0.0  0.
7.032157257251302e-06 2.083509266047881e-06  0.
1.4751814204859724e-05 1.782406604629563e-06  0.
2.2357222210473407e-05 1.7873083053207635e-06  0.
3.0067547113070172e-05 2.0544133745856786e-06  0.
4.2144980573723756e-05 3.965100586923183e-06  0.
6.982584071066306e-05 3.967081538769599e-06  0.
8.19116143746845e-05 2.056118318101928e-06  0.
8.962030859203705e-05 1.7813756593193805e-06  0.
9.723864208096815e-05 1.821849762935218e-06  0.
0.00010487028015382239 1.8158690250459912e-06  0.
0.0001124999999999999 1.8168765826622782e-06  0.
0.0 0.0  0.
7.032157257251306e-06 -2.0835092660478874e-06  0.
1.4751814204859731e-05 -1.7824066046295823e-06  0.
2.235722221047342e-05 -1.787308305320804e-06  0.
3.0067547113070182e-05 -2.054413374585742e-06  0.
4.214498057372378e-05 -3.965100586923278e-06  0.
6.982584071066306e-05 -3.9670815387697355e-06  0.
8.191161437468452e-05 -2.0561183181020855e-06  0.
8.962030859203707e-05 -1.7813756593195583e-06  0.
9.723864208096815e-05 -1.8218497629354007e-06  0.
0.0001048702801538224 -1.8158690250461794e-06  0.
0.0001124999999999999 -1.8168765826624785e-06  0.
</DataArray>
<DataArray type="Float64" Name="Nodal_sigma_xx" NumberOfComponents="1" format="ascii" >
9.316159355220051e-05 
9.31615935522005e-05 
9.316159355220051e-05 
9.31615935522005e-05 
9.466770001927111e-05 
9.452164668693076e-05 
9.451834315122074e-05 
9.466439648356114e-05 
9.316159355220043e-05 
9.316159355220046e-05 
9.31615935522005e-05 
9.316159355220039e-05 
9.316159355220051e-05 
9.31615935522005e-05 
9.316159355220051e-05 
9.31615935522005e-05 
9.466770001927111e-05 
9.452164668693076e-05 
9.451834315122074e-05 
9.466439648356114e-05 
9.316159355220043e-05 
9.316159355220046e-05 
9.31615935522005e-05 
9.316159355220039e-05 
</DataArray>
<DataArray type="Float64" Name="Nodal_sigma_yy" NumberOfComponents="1" format="ascii" >
1.7030691016350936e-05 
7.237248133770858e-06 
-9.287169426163502e-07 
-7.957818284901812e-07 
-3.70924914030113e-06 
3.3601837809910345e-06 
3.3624975894031767e-06 
-3.683706197355909e-06 
-9.566763879374881e-07 
1.4098948810693112e-07 
-2.1209333067148304e-08 
6.115833267588696e-09 
1.7030691016350936e-05 
7.237248133770858e-06 
-9.287169426163502e-07 
-7.957818284901812e-07 
-3.70924914030113e-06 
3.3601837809910345e-06 
3.3624975894031767e-06 
-3.683706197355909e-06 
-9.566763879374881e-07 
1.4098948810693112e-07 
-2.1209333067148304e-08 
6.115833267588696e-09 
</DataArray>
<DataArray type="Float64" Name="Nodal_sigma_xy" NumberOfComponents="1" format="ascii" >
-5.293955920339377e-21 
-3.917527381051139e-21 
-2.2886019597810893e-21 
-1.0180525388996388e-21 
1.9587636905255695e-21 
-9.796403392042076e-22 
-1.0826398351035449e-20 
2.514629062161204e-22 
2.4428297849916013e-20 
2.443326093359133e-20 
-1.0339757656912846e-25 
-1.628904741754736e-20 
-5.293955920339377e-21 
-3.917527381051139e-21 
-2.2886019597810893e-21 
-1.0180525388996388e-21 
1.9587636905255695e-21 
-9.796403392042076e-22 
-1.0826398351035449e-20 
2.514629062161204e-22 
2.4428297849916013e-20 
2.443326093359133e-20 
-1.0339757656912846e-25 
-1.628904741754736e-20 
</DataArray>
</PointData>
<CellData>
</CellData>
<Points>
<DataArray type="Float64" Name="Points" NumberOfComponents="3" format="ascii">
0.0 0.0 0.0
9.0 0.0 0.0
18.0 0.0 0.0
27.0 0.0 0.0
36.0 0.0 0.0
45.0 0.5 0.0
55.0 0.5 0.0
64.0 0.0 0.0
73.0 0.0 0.0
82.0 0.0 0.0
91.0 0.0 0.0
100.0 0.0 0.0
0.0 10.0 0.0
9.0 10.0 0.0
18.0 10.0 0.0
27.0 10.0 0.0
36.0 10.0 0.0
45.0 9.5 0.0
55.0 9.5 0.0
64.0 10.0 0.0
73.0 10.0 0.0
82.0 10.0 0.0
91.0 10.0 0.0
100.0 10.0 0.0
</DataArray>
</Points>
<Cells>
<DataArray type="Int64" Name="connectivity" format="ascii">
0 1 13 12 
1 2 14 13 
2 3 15 14 
3 4 16 15 
4 5 17 16 
5 6 18 17 
6 7 19 18 
7 8 20 19 
8 9 21 20 
9 10 22 21 
10 11 23 22 
</DataArray>
<DataArray type="Int64" Name="offsets" format="ascii">
4
8
12
16
20
24
28
32
36
40
44
</DataArray>
<DataArray type="UInt8" Name="types" format="ascii" RangeMin="9" RangeMax="9">
9
9
9
9
9
9
9
9
9
9
9
</DataArray>
</Cells>
</Piece>
</UnstructuredGrid>
</VTKFile>
