<?xml version="1.0"?>
<VTKFile type="UnstructuredGrid" version="0.1" byte_order="LittleEndian" compressor="vtkZLibDataCompressor">
<UnstructuredGrid>
<Piece NumberOfPoints="24" NumberOfCells="11">
<PointData>
<DataArray type="Float64" Name="displacement" NumberOfComponents="3" format="ascii" >
0.0 0.0  0.
4.661084414921103e-06 1.3813672369229783e-06  0.
9.776736927048583e-06 1.178509881646141e-06  0.
1.482402892371437e-05 1.2041362709111446e-06  0.
1.9890892937079334e-05 1.2292521471624768e-06  0.
2.521581426014526e-05 1.1829061615902487e-06  0.
3.143897775986445e-05 1.1828114971696486e-06  0.
3.676409129908364e-05 1.2298202328493578e-06  0.
4.182968981815623e-05 1.200287274095753e-06  0.
4.68855751762758e-05 1.2046379637118855e-06  0.
5.194289068626905e-05 1.2039950752497058e-06  0.
5.700000000000004e-05 1.2041033808097385e-06  0.
0.0 0.0  0.
4.6610844149211125e-06 -1.3813672369229885e-06  0.
9.776736927048602e-06 -1.1785098816461766e-06  0.
1.4824028923714392e-05 -1.2041362709112172e-06  0.
1.989089293707935e-05 -1.229252147162587e-06  0.
2.5215814260145273e-05 -1.1829061615903904e-06  0.
3.1438977759864474e-05 -1.182811497169834e-06  0.
3.676409129908366e-05 -1.2298202328495783e-06  0.
4.182968981815624e-05 -1.2002872740959919e-06  0.
4.688557517627581e-05 -1.2046379637121356e-06  0.
5.194289068626905e-05 -1.2039950752499654e-06  0.
5.700000000000004e-05 -1.2041033808099958e-06  0.
</DataArray>
<DataArray type="Float64" Name="Nodal_sigma_xx" NumberOfComponents="1" format="ascii" >
6.174764821528995e-05 
6.174764821528995e-05 
6.174764821528995e-05 
6.174764821528995e-05 
6.336828821117767e-05 
6.679871311202708e-05 
6.679874712133316e-05 
6.336832222048373e-05 
6.174764821528996e-05 
6.174764821528997e-05 
6.174764821528997e-05 
6.174764821528999e-05 
6.174764821528995e-05 
6.174764821528995e-05 
6.174764821528995e-05 
6.174764821528995e-05 
6.336828821117767e-05 
6.679871311202708e-05 
6.679874712133316e-05 
6.336832222048373e-05 
6.174764821528996e-05 
6.174764821528997e-05 
6.174764821528997e-05 
6.174764821528999e-05 
</DataArray>
<DataArray type="Float64" Name="Nodal_sigma_yy" NumberOfComponents="1" format="ascii" >
1.128341806014642e-05 
4.808089040112584e-06 
-6.934434633728925e-07 
1.5493964921032096e-09 
-1.717909891735596e-07 
2.2593639511160402e-07 
2.232776283178074e-07 
-1.5642277174553766e-07 
-1.0283617560773146e-07 
1.515540671916792e-08 
-2.279858400723193e-09 
6.574102923789739e-10 
1.128341806014642e-05 
4.808089040112584e-06 
-6.934434633728925e-07 
1.5493964921032096e-09 
-1.717909891735596e-07 
2.2593639511160402e-07 
2.232776283178074e-07 
-1.5642277174553766e-07 
-1.0283617560773146e-07 
1.515540671916792e-08 
-2.279858400723193e-09 
6.574102923789739e-10 
</DataArray>
<DataArray type="Float64" Name="Nodal_sigma_xy" NumberOfComponents="1" format="ascii" >
-3.282252670610414e-21 
-2.1440521477374477e-21 
-1.522012327097571e-21 
-3.565148440103549e-21 
-3.561839717653337e-21 
-6.106121266070007e-21 
1.0175581692366677e-21 
1.0180938979302665e-20 
1.2217457647408219e-20 
8.14442031119711e-21 
0.0 
0.0 
-3.282252670610414e-21 
-2.1440521477374477e-21 
-1.522012327097571e-21 
-3.565148440103549e-21 
-3.561839717653337e-21 
-6.106121266070007e-21 
1.0175581692366677e-21 
1.0180938979302665e-20 
1.2217457647408219e-20 
8.14442031119711e-21 
0.0 
0.0 
</DataArray>
</PointData>
<CellData>
</CellData>
<Points>
<DataArray type="Float64" Name="Points" NumberOfComponents="3" format="ascii">
0.0 0.0 0.0
9.0 0.0 0.0
18.0 0.0 0.0
27.0 0.0 0.0
36.0 0.0 0.0
45.0 0.5 0.0
55.0 0.5 0.0
64.0 0.0 0.0
73.0 0.0 0.0
82.0 0.0 0.0
91.0 0.0 0.0
100.0 0.0 0.0
0.0 10.0 0.0
9.0 10.0 0.0
18.0 10.0 0.0
27.0 10.0 0.0
36.0 10.0 0.0
45.0 9.5 0.0
55.0 9.5 0.0
64.0 10.0 0.0
73.0 10.0 0.0
82.0 10.0 0.0
91.0 10.0 0.0
100.0 10.0 0.0
</DataArray>
</Points>
<Cells>
<DataArray type="Int64" Name="connectivity" format="ascii">
0 1 13 12 
1 2 14 13 
2 3 15 14 
3 4 16 15 
4 5 17 16 
5 6 18 17 
6 7 19 18 
7 8 20 19 
8 9 21 20 
9 10 22 21 
10 11 23 22 
</DataArray>
<DataArray type="Int64" Name="offsets" format="ascii">
4
8
12
16
20
24
28
32
36
40
44
</DataArray>
<DataArray type="UInt8" Name="types" format="ascii" RangeMin="9" RangeMax="9">
9
9
9
9
9
9
9
9
9
9
9
</DataArray>
</Cells>
</Piece>
</UnstructuredGrid>
</VTKFile>
