<?xml version="1.0"?>
<VTKFile type="UnstructuredGrid" version="0.1" byte_order="LittleEndian" compressor="vtkZLibDataCompressor">
<UnstructuredGrid>
<Piece NumberOfPoints="24" NumberOfCells="11">
<PointData>
<DataArray type="Float64" Name="displacement" NumberOfComponents="3" format="ascii" >
0.0 0.0  0.
7.570332880428683e-06 2.243236590998793e-06  0.
1.5879937956544778e-05 1.916631618448828e-06  0.
2.4072073859408504e-05 1.9386868825667216e-06  0.
3.233968928122742e-05 2.1123192601845135e-06  0.
4.2902860855497045e-05 2.884540859140788e-06  0.
6.00327436282845e-05 2.885086140405445e-06  0.
7.059977211374079e-05 2.113720792951477e-06  0.
7.886548949811678e-05 1.932364511984787e-06  0.
8.707156020903998e-05 1.959081269184993e-06  0.
9.528641321052847e-05 1.9551334134503464e-06  0.
0.00010349999999999993 1.95579849728902e-06  0.
0.0 0.0  0.
7.5703328804286885e-06 -2.243236590998799e-06  0.
1.5879937956544778e-05 -1.916631618448842e-06  0.
2.4072073859408504e-05 -1.9386868825667407e-06  0.
3.233968928122742e-05 -2.112319260184532e-06  0.
4.290286085549705e-05 -2.884540859140809e-06  0.
6.003274362828449e-05 -2.885086140405462e-06  0.
7.059977211374077e-05 -2.113720792951482e-06  0.
7.886548949811676e-05 -1.9323645119847817e-06  0.
8.707156020903997e-05 -1.9590812691849697e-06  0.
9.528641321052847e-05 -1.955133413450324e-06  0.
0.00010349999999999993 -1.9557984972890004e-06  0.
</DataArray>
<DataArray type="Float64" Name="Nodal_sigma_xx" NumberOfComponents="1" format="ascii" >
0.00010028972514381206 
0.00010028972514381206 
0.00010028972514381206 
0.00010028972514381206 
0.00010079067469992531 
0.0001015242984141541 
0.00010152165193126001 
0.00010078802821703117 
0.00010028972514381209 
0.00010028972514381213 
0.00010028972514381202 
0.00010028972514381204 
0.00010028972514381206 
0.00010028972514381206 
0.00010028972514381206 
0.00010028972514381206 
0.00010079067469992531 
0.0001015242984141541 
0.00010152165193126001 
0.00010078802821703117 
0.00010028972514381209 
0.00010028972514381213 
0.00010028972514381202 
0.00010028972514381204 
</DataArray>
<DataArray type="Float64" Name="Nodal_sigma_yy" NumberOfComponents="1" format="ascii" >
1.8330359226482137e-05 
7.79941626797205e-06 
-1.0581766442080083e-06 
-4.6003342060153944e-07 
-2.0286440164576273e-06 
2.031301331288751e-06 
2.030638641246371e-06 
-2.0022691360880043e-06 
-6.314973894982878e-07 
9.306646929814821e-08 
-1.4000176688597972e-08 
4.037031531024918e-09 
1.8330359226482137e-05 
7.79941626797205e-06 
-1.0581766442080083e-06 
-4.6003342060153944e-07 
-2.0286440164576273e-06 
2.031301331288751e-06 
2.030638641246371e-06 
-2.0022691360880043e-06 
-6.314973894982878e-07 
9.306646929814821e-08 
-1.4000176688597972e-08 
4.037031531024918e-09 
</DataArray>
<DataArray type="Float64" Name="Nodal_sigma_xy" NumberOfComponents="1" format="ascii" >
-4.446922973085077e-21 
-4.7645603283054394e-21 
-6.613308997361456e-21 
-2.0406545711683193e-21 
8.490181807244276e-21 
1.0739143721108176e-20 
-1.5148300729351378e-20 
-2.7568275455167306e-20 
-1.22124945637329e-20 
-2.8506711860108716e-20 
-3.257824993145957e-20 
-1.6289150815123928e-20 
-4.446922973085077e-21 
-4.7645603283054394e-21 
-6.613308997361456e-21 
-2.0406545711683193e-21 
8.490181807244276e-21 
1.0739143721108176e-20 
-1.5148300729351378e-20 
-2.7568275455167306e-20 
-1.22124945637329e-20 
-2.8506711860108716e-20 
-3.257824993145957e-20 
-1.6289150815123928e-20 
</DataArray>
</PointData>
<CellData>
</CellData>
<Points>
<DataArray type="Float64" Name="Points" NumberOfComponents="3" format="ascii">
0.0 0.0 0.0
9.0 0.0 0.0
18.0 0.0 0.0
27.0 0.0 0.0
36.0 0.0 0.0
45.0 0.5 0.0
55.0 0.5 0.0
64.0 0.0 0.0
73.0 0.0 0.0
82.0 0.0 0.0
91.0 0.0 0.0
100.0 0.0 0.0
0.0 10.0 0.0
9.0 10.0 0.0
18.0 10.0 0.0
27.0 10.0 0.0
36.0 10.0 0.0
45.0 9.5 0.0
55.0 9.5 0.0
64.0 10.0 0.0
73.0 10.0 0.0
82.0 10.0 0.0
91.0 10.0 0.0
100.0 10.0 0.0
</DataArray>
</Points>
<Cells>
<DataArray type="Int64" Name="connectivity" format="ascii">
0 1 13 12 
1 2 14 13 
2 3 15 14 
3 4 16 15 
4 5 17 16 
5 6 18 17 
6 7 19 18 
7 8 20 19 
8 9 21 20 
9 10 22 21 
10 11 23 22 
</DataArray>
<DataArray type="Int64" Name="offsets" format="ascii">
4
8
12
16
20
24
28
32
36
40
44
</DataArray>
<DataArray type="UInt8" Name="types" format="ascii" RangeMin="9" RangeMax="9">
9
9
9
9
9
9
9
9
9
9
9
</DataArray>
</Cells>
</Piece>
</UnstructuredGrid>
</VTKFile>
