<?xml version="1.0"?>
<VTKFile type="UnstructuredGrid" version="0.1" byte_order="LittleEndian" compressor="vtkZLibDataCompressor">
<UnstructuredGrid>
<Piece NumberOfPoints="297" NumberOfCells="256">
<PointData>
<DataArray type="Float64" Name="displacement" NumberOfComponents="3" format="ascii" >
0.0 0.0  0.
-0.22609599027516827 -0.07412374392694134  0.
-0.4137747752119365 -0.1275753072318865  0.
-0.5997578305897339 -0.2119642743792338  0.
-0.7809191953778656 -0.32619865289872935  0.
-0.9569492915255532 -0.4695462320460112  0.
-1.1304786345580893 -0.6390074047236235  0.
-1.3039959901796045 -0.8324531218173505  0.
-1.4794380666128821 -1.0480853649768265  0.
-1.6582638153387026 -1.2843574212804396  0.
-1.8415511783754472 -1.5398681080037113  0.
-2.030079390734006 -1.813314933307225  0.
-2.2243911089688555 -2.1034685916658233  0.
-2.424839203487476 -2.4091626556127075  0.
-2.631621936981762 -2.7292904971678826  0.
-2.844809897954051 -3.0628052265561827  0.
-3.0643670876461093 -3.4087202440677156  0.
-3.2901678100762504 -3.766109315733354  0.
-3.522010454473363 -4.134105796426315  0.
-3.759628888449601 -4.511900984618384  0.
-4.00270194103398 -4.898741741606998  0.
-4.250861300238526 -5.293927542648415  0.
-4.503698045132857 -5.696807096144004  0.
-4.760767961989058 -6.1067745755427705  0.
-5.021595786142291 -6.523265316467296  0.
-5.285678705804385 -6.945750447638052  0.
-5.552490339333279 -7.373729264437363  0.
-5.821489003682836 -7.806717367573107  0.
-6.092141846383679 -8.244229276451998  0.
-6.363990887166494 -8.685761170307563  0.
-6.636845032628394 -9.130824377116282  0.
-6.911139593209241 -9.579239666142534  0.
-7.189220184650178 -10.033241874691798  0.
0.0 0.0  0.
-0.1400064158537978 -0.03605411018808594  0.
-0.2995277161977689 -0.10442389977111172  0.
-0.4455988265075864 -0.20064639247062582  0.
-0.5898369711787554 -0.33042013901767253  0.
-0.7344596556771993 -0.4895407585106018  0.
-0.8808976510646792 -0.6749434435687072  0.
-1.030592721666944 -0.8842814388899243  0.
-1.1848727397202725 -1.115681402328052  0.
-1.3448091266983537 -1.367505591381618  0.
-1.511211922711162 -1.6382625508668929  0.
-1.6846544428196168 -1.9265605051021601  0.
-1.8655074524826198 -2.2310886838663166  0.
-2.053972195355892 -2.550610781601076  0.
-2.2501095409495844 -2.8839634025805627  0.
-2.4538644741362305 -3.2300556721172735  0.
-2.665086235870523 -3.5878684512336103  0.
-2.8835447507644307 -3.956452663180636  0.
-3.108944017824331 -4.334926728314171  0.
-3.3409330532767596 -4.722473278022129  0.
-3.57911485563467 -5.118335349405721  0.
-3.8230537486910725 -5.521812232192226  0.
-4.072281355737933 -5.932255084164683  0.
-4.326301362453097 -6.349062364185196  0.
-4.584593136299887 -6.7716750649666455  0.
-4.846614245759558 -7.19957172040958  0.
-5.111802200549926 -7.632263428479032  0.
-5.379577226152917 -8.069290418433464  0.
-5.649352328030092 -8.510225688695277  0.
-5.920572490254359 -8.954704382004136  0.
-6.192828697721156 -9.402514100561763  0.
-6.466259469094849 -9.85381232490538  0.
-6.742177422140232 -10.308220508929162  0.
0.0 0.0  0.
-0.09464168060614717 -0.01795362836384487  0.
-0.19981640445131746 -0.08986958512620297  0.
-0.30812938769370796 -0.19882493525069064  0.
-0.4172267067101938 -0.3411451271810488  0.
-0.5302700275615662 -0.5139642878686648  0.
-0.6486497612102393 -0.7137057756943431  0.
-0.7734191542654266 -0.9377248947888145  0.
-0.9054709125090598 -1.1839125192347462  0.
-1.0455324640258992 -1.4504701017915056  0.
-1.1941411600660383 -1.7357754393455536  0.
-1.3516501651492856 -2.0383263665538514  0.
-1.51824582841016 -2.3567177196931524  0.
-1.6939698352434616 -2.689633706142483  0.
-1.8787415838479475 -3.035845551779205  0.
-2.072378770587912 -3.3942100607000545  0.
-2.27461532870519 -3.763667436560818  0.
-2.485116580874084 -4.143238022557762  0.
-2.703491808199663 -4.5320181174968175  0.
-2.9293045698213698 -4.92917515736769  0.
-3.1620811221436536 -5.333942532875396  0.
-3.401317247186686 -5.745614251770706  0.
-3.646483736195848 -6.163539603066535  0.
-3.8970306968454422 -6.587117978109432  0.
-4.1523907607304515 -7.015794114006292  0.
-4.411981177674519 -7.4490543636087425  0.
-4.675204831367468 -7.886425338084317  0.
-4.941450790424121 -8.327477383294593  0.
-5.2100980077701555 -8.771836077880799  0.
-5.4805325918153 -9.219197938410215  0.
-5.752209893409824 -9.669316074871315  0.
-6.02471244160597 -10.12170151592358  0.
-6.297191567137568 -10.574693396058116  0.
0.0 0.0  0.
-0.05738511172972929 -0.015201479687942571  0.
-0.11893205101697346 -0.08870991601953673  0.
-0.18681034241728098 -0.20621664540649307  0.
-0.2608306821814855 -0.35969711555808404  0.
-0.34194872973807094 -0.5445489543218125  0.
-0.4315217937299311 -0.7571764477795282  0.
-0.5304315155295622 -0.9946444565220984  0.
-0.6393069623788286 -1.2546054314452395  0.
-0.7585901602349779 -1.535057494552309  0.
-0.8885621657241787 -1.8342120373263266  0.
-1.0293543785423422 -2.1504281095857793  0.
-1.1809622433955735 -2.4821852654615078  0.
-1.343261231442079 -2.8280727506885093  0.
-1.5160239831945428 -3.186784591126127  0.
-1.6989370718281818 -3.55711580290027  0.
-1.8916163729660185 -3.93795801451449  0.
-2.0936205282597724 -4.328294158379842  0.
-2.3044623758457665 -4.72719241688294  0.
-2.5236184469945937 -5.133799735595671  0.
-2.750536734943499 -5.547335187073525  0.
-2.9846429746759866 -5.967083401649646  0.
-3.2253456704814867 -6.392388237787554  0.
-3.4720401012541644 -6.822646889614259  0.
-3.724111542913547 -7.257304779740939  0.
-3.980937978068213 -7.695851922199752  0.
-4.241892522406021 -8.137821880626825  0.
-4.506345401013168 -8.582794279613449  0.
-4.773663052012206 -9.03039767216106  0.
-5.043195680300023 -9.480293067468068  0.
-5.3142167772411435 -9.93206493972838  0.
-5.5856801836019585 -10.38491111984848  0.
-5.855653304788859 -10.837218777842478  0.
0.0 0.0  0.
-0.02307011401721871 -0.02128347203384481  0.
-0.04709629188282582 -0.09962951823668445  0.
-0.07743022484016128 -0.2244758214646326  0.
-0.11640342025999775 -0.3874897361353318  0.
-0.16550372830186114 -0.5830563263092716  0.
-0.22591698286062145 -0.807224546673737  0.
-0.2984386669647814 -1.056940035211588  0.
-0.3835164305471626 -1.3296549618583742  0.
-0.4813745907484248 -1.6231567284693527  0.
-0.592073378524335 -1.9354608071033046  0.
-0.7155389135831979 -2.2647577082858255  0.
-0.8515813032319403 -2.6093871568461444  0.
-0.999910143794741 -2.967824920215211  0.
-1.1601495115575262 -3.338674218946843  0.
-1.3318524582121705 -3.7206582058240207  0.
-1.5145144646848543 -4.112612238790957  0.
-1.7075854179636907 -4.5134757174052815  0.
-1.9104799094811598 -4.922283643807187  0.
-2.122585852189456 -5.338158157754949  0.
-2.3432715380744398 -5.760300263335424  0.
-2.5718913252161446 -6.18798190480917  0.
-2.807790187276331 -6.620538504306464  0.
-3.0503074204783815 -7.057362066931147  0.
-3.2987799284787394 -7.497894999892682  0.
-3.552545694234349 -7.941624856386642  0.
-3.810948083983052 -8.388080149758979  0.
-4.073340359462451 -8.8368265400793  0.
-4.339083873578891 -9.287459423271779  0.
-4.607512271820986 -9.739578205047982  0.
-4.877787929436434 -10.192707105532849  0.
-5.148560278686535 -10.646124884962187  0.
-5.417432749900579 -11.098601708629394  0.
0.0 0.0  0.
0.010489940053068912 -0.03291236455888801  0.
0.021504400458423858 -0.12028830927313441  0.
0.02652209859710084 -0.25367834879344264  0.
0.021584748825431845 -0.4256248420457825  0.
0.004096507398326259 -0.6307424079908198  0.
-0.027334605813429842 -0.8652891676721691  0.
-0.07342959688376123 -1.1261886963899088  0.
-0.13451456150157778 -1.410744359187516  0.
-0.21065645298823682 -1.7165280505137706  0.
-0.3017429104741253 -2.0413371172822163  0.
-0.4075251911539488 -2.3831684191290656  0.
-0.5276449905667143 -2.7402006192588213  0.
-0.6616542175206723 -3.1107798735871364  0.
-0.8090316258623649 -3.4934069110753336  0.
-0.9691974750512224 -3.886724624402385  0.
-1.1415264648988175 -4.289505941191792  0.
-1.3253589429669657 -4.700642021528538  0.
-1.5200103964512504 -5.119130912479703  0.
-1.724779311117546 -5.544066782157107  0.
-1.9389535419935284 -5.974629815098967  0.
-2.161815382551387 -6.41007680576283  0.
-2.392645557052366 -6.849732444598  0.
-2.630726429568266 -7.2929812393250435  0.
-2.8753448746586217 -7.7392599152929655  0.
-3.1257955328674156 -8.188049923247075  0.
-3.381385447851744 -8.638869256587814  0.
-3.641440589934311 -9.09126225060625  0.
-3.9053100387088566 -9.544786177498425  0.
-4.172346703064494 -9.998998207091171  0.
-4.441787383897183 -10.453458880669725  0.
-4.712372953572898 -10.90772657230183  0.
-4.981682945482503 -11.361185270146233  0.
0.0 0.0  0.
0.04525017066930439 -0.04913874302369476  0.
0.09120165039634202 -0.14993377995190768  0.
0.13123500629149373 -0.29381475348399455  0.
0.15922224215713968 -0.47426696507461125  0.
0.17233075727622818 -0.6880754543683241  0.
0.16917500963576235 -0.9321336377128295  0.
0.14906781740865419 -1.203456085087963  0.
0.11174549674743234 -1.4991914058827531  0.
0.05723205484671229 -1.8166809733968317  0.
-0.014239445385183439 -2.153487494411541  0.
-0.10228088399594092 -2.5074004189852577  0.
-0.20638736714084843 -2.87642679436568  0.
-0.32596564354578156 -3.258775561551726  0.
-0.4603559654249546 -3.6528396257088565  0.
-0.6088494037493346 -4.05717786408916  0.
-0.7707017954266432 -4.470498027957785  0.
-0.9451450448123289 -4.8916408998952345  0.
-1.1313962553694463 -5.319565785433261  0.
-1.3286650387310492 -5.753337294524487  0.
-1.5361592794670758 -6.192113320176153  0.
-1.7530895938494937 -6.63513410396378  0.
-1.9786726976259887 -7.081712261766306  0.
-2.212133896564831 -7.531223596613644  0.
-2.4527089666528377 -7.983098400573313  0.
-2.6996458786712356 -8.43681267384405  0.
-2.9522073289952826 -8.89187825057048  0.
-3.209676083256589 -9.34783052558666  0.
-3.4713672558994406 -9.804214287448762  0.
-3.7366509138085324 -10.260577692558495  0.
-4.004977357440074 -10.716519311521854  0.
-4.275687156451843 -11.171904022105672  0.
-4.5469795581167345 -11.627031799643397  0.
0.0 0.0  0.
0.0829573429884829 -0.07204229701648249  0.
0.1687885295466195 -0.19155626467911765  0.
0.24306332069349013 -0.34442453804524154  0.
0.3022517735055299 -0.5326076962451142  0.
0.34450719870387186 -0.7545842771809789  0.
0.3685580856932531 -1.00781779107656  0.
0.373666820497255 -1.2892907079958669  0.
0.3595369747335941 -1.5959407165011807  0.
0.3262211102294204 -1.9248572297685926  0.
0.27403255767038154 -2.273366541979086  0.
0.2034732220169941 -2.639055731023006  0.
0.11517830077708942 -3.0197666419431672  0.
0.009875717266984725 -3.413576705742384  0.
-0.11164327770531045 -3.818775463376586  0.
-0.24854551308577355 -4.233841023011089  0.
-0.39997171678219506 -4.657418203437891  0.
-0.5650483976732378 -5.088298882111525  0.
-0.7428968767616368 -5.525404520520651  0.
-0.9326401765996932 -5.96777064249544  0.
-1.1334082423519722 -6.414533002234363  0.
-1.3443418208742246 -6.864915198524288  0.
-1.564595220847201 -7.318217521658481  0.
-1.7933380820252351 -7.77380683894137  0.
-2.0297561786515077 -8.23110732908029  0.
-2.273051227653538 -8.68959188871837  0.
-2.5224399586320847 -9.1487741431034  0.
-2.7771544506518873 -9.608201518615537  0.
-3.0364516310689167 -10.06745125659986  0.
-3.2996598153453807 -10.526136127675105  0.
-3.5663221497493947 -10.983936279682244  0.
-3.8366145891287777 -11.44078325964685  0.
-4.11108565234485 -11.897904521608684  0.
0.0 0.0  0.
0.14284205540320954 -0.1185339871027311  0.
0.26278538502162146 -0.24395694421897535  0.
0.3669320213764354 -0.4033469947789921  0.
0.4551254447893037 -0.598667694333098  0.
0.5251921649060866 -0.8290983263736165  0.
0.5754604670033291 -1.0919371682774148  0.
0.6049311347423276 -1.383913740560396  0.
0.6132139363992295 -1.7016900490226672  0.
0.6003789689345268 -2.0421062207308127  0.
0.5668231448645538 -2.402277076814792  0.
0.5131658031485754 -2.7796164317061978  0.
0.44017320598787774 -3.171826721642287  0.
0.34870593598224175 -3.5768742595644576  0.
0.23968292215466372 -3.9929604040383246  0.
0.11405683394524772 -4.418493450355949  0.
-0.027202982737146296 -4.852063092725311  0.
-0.18312258834612544 -5.292417867405363  0.
-0.35273217516127997 -5.738445383901736  0.
-0.5350724400383622 -6.189154966021139  0.
-0.7291992287607305 -6.643662317932519  0.
-0.9341868490342324 -7.101175881291588  0.
-1.1491303011757381 -7.560984607640423  0.
-1.3731465445296334 -8.022446935046164  0.
-1.6053747518067534 -8.48498089204709  0.
-1.844975289787848 -8.948055645067399  0.
-2.0911270931702584 -9.411185934530593  0.
-2.343023949336016 -9.873933601201383  0.
-2.5998752064273574 -10.335926673714862  0.
-2.8609315761335687 -10.796915577729813  0.
-3.1256268464442125 -11.25690548339432  0.
-3.39405434567863 -11.71628441904632  0.
-3.669410926648535 -12.1754934867389  0.
</DataArray>
<DataArray type="Float64" Name="Nodal_sigma_xx" NumberOfComponents="1" format="ascii" >
-3227.5153453367284 
-3088.6369403154677 
-2860.264048010932 
-2674.579454801221 
-2476.500569312016 
-2280.2617687986167 
-2100.9585317375977 
-1939.2452535276175 
-1792.3289332701095 
-1657.2921565054914 
-1531.8281336913676 
-1414.2697600600782 
-1303.4460119780656 
-1198.5246985786423 
-1098.8882084888369 
-1004.048932002905 
-913.5967979823374 
-827.1689023521769 
-744.4328459123526 
-665.0779352907114 
-588.8106079195155 
-515.3520951320991 
-444.437647333721 
-375.81809119981597 
-309.26681788674676 
-244.59933175090478 
-181.71794424095722 
-120.69390125231226 
-61.865935740955514 
-5.751556258070275 
48.02296980021102 
105.81505416987594 
137.1440254348206 
-2769.4563002841915 
-2719.564921553868 
-2570.3739855890044 
-2379.2515072700007 
-2195.9574957638433 
-2019.5433119358383 
-1857.3926990093294 
-1710.0879156459805 
-1575.8395147315305 
-1452.4253085611754 
-1337.9624298087308 
-1231.0186848439466 
-1130.5414866021586 
-1035.7503845150338 
-946.0457333338841 
-860.9436177178864 
-780.0338413788431 
-702.9544699363456 
-629.377035646227 
-558.9981087727242 
-491.534467116515 
-426.7202615701512 
-364.3054162070369 
-304.0551604285881 
-245.7512029203391 
-189.19556386992565 
-134.21754356799312 
-80.67945352976976 
-28.45580374102937 
22.68696465458749 
73.4260533237532 
124.48981243391185 
150.15771834414707 
-1959.0194865502474 
-1978.547505891537 
-1919.8302650514822 
-1763.1734493254621 
-1613.008643019617 
-1475.0140987032303 
-1348.0047710134397 
-1231.654692849669 
-1125.0840131535513 
-1027.0870716386335 
-936.5235852720766 
-852.4374874418521 
-774.0526372887693 
-700.7360182518685 
-631.9612884069428 
-567.2804900090234 
-506.30398938964004 
-448.6867724496029 
-394.1191595971928 
-342.3204338514302 
-293.0343278592926 
-246.02560495685026 
-201.07694504129302 
-157.98471705165383 
-116.55041860079527 
-76.56084235760986 
-37.74467539969285 
0.30737072468694926 
38.23850778967011 
76.85049171845132 
116.0817594887259 
150.71206336233595 
165.6898722351297 
-1255.0122174944254 
-1241.9470721187647 
-1187.6975149737261 
-1090.5819717095437 
-982.691963912865 
-884.0202580128584 
-794.8711729304375 
-713.5989269245634 
-639.1064163708079 
-570.6629594936663 
-507.6995121593309 
-449.72132290254604 
-396.27204775041025 
-346.9242532561648 
-301.2801142387471 
-258.97404538465287 
-219.674005561934 
-183.08091716687332 
-148.92666303854975 
-116.97130887602083 
-87.00003948472866 
-58.81998417014946 
-32.25659382822114 
-7.148255200311066 
16.66405850485836 
39.35831012517524 
61.17246995124418 
82.46401302733898 
103.72798032604676 
125.32052957890343 
146.32188778985292 
163.08158130708742 
169.73783049471814 
-533.0998674826204 
-499.17901656310346 
-432.1170596718221 
-365.6476420884924 
-302.87128222950065 
-248.27837772273307 
-200.83885622604413 
-158.28306740799513 
-119.51769023261252 
-84.19965185103374 
-52.22461063436622 
-23.487004378865358 
2.182710080970786 
25.01007096466043 
45.24997084395369 
63.16221425546522 
78.99493888536423 
92.97558106300454 
105.3073049572877 
116.1687953068929 
125.71584209282095 
134.08372812706781 
141.3898988613467 
147.7367053019805 
153.21412513829227 
157.9021468450211 
161.87166119875687 
165.18099852859956 
167.86426743367042 
169.91658790566635 
171.32886706196098 
172.24946031801164 
172.62274957075624 
245.22848037453204 
290.6997509430032 
364.5245685112218 
404.5762940868805 
420.6561926168279 
426.7899288175478 
429.3649926772072 
430.57134781101263 
430.88195208111676 
430.1466498982314 
428.1308071439088 
424.7005408356798 
419.8458148122576 
413.6473497546418 
406.2359571511465 
397.7606080878803 
388.367940601847 
378.19112790711813 
367.34509630886765 
355.92552422308347 
344.0097993624512 
331.6587000466583 
318.9177472168133 
305.8166435359947 
292.3634927446842 
278.5272036918997 
264.1982287391477 
249.12514571535263 
232.8816772817085 
215.12397543992802 
196.77088033766148 
181.7774570468032 
175.8577201351635 
1124.4552621412492 
1180.491017869378 
1236.8681500051573 
1219.0125118765638 
1178.6519319188333 
1134.4778031222459 
1091.328294672221 
1049.7872236519665 
1009.4878404098079 
970.0260287157312 
931.1339812847752 
892.6776011813902 
854.6143682176742 
816.9526239781987 
779.7219406706986 
742.9547430642383 
706.6764185296299 
670.9009481188281 
635.6297360292058 
600.8520807189016 
566.5463360599995 
532.6811549667566 
499.2161840126939 
466.10092092552327 
433.26860886909583 
400.61829574389486 
367.9728599928658 
335.00023512649176 
301.1183260120574 
265.5705988762622 
228.4683430234468 
195.31855163520544 
180.98277758557998 
2291.3719929863264 
2250.3370874700067 
2157.2935959136894 
2056.8394968060497 
1962.497681892226 
1872.2033285644056 
1784.4412585214423 
1698.6873654805418 
1614.970414165918 
1533.4879805174319 
1454.4231986504687 
1377.8792232751694 
1303.8754300865219 
1232.365355044153 
1163.257981238723 
1096.4353044689246 
1031.764653647895 
969.1064086704644 
908.3183584003897 
849.2578697268988 
791.7827557988054 
735.7514514910906 
681.0229319978675 
627.4568268759401 
574.9144817680617 
523.2623363899936 
472.37929363432704 
422.1667205550315 
372.5408619595417 
323.33504467622373 
273.98851229453436 
224.00262432646895 
198.83403575043883 
2987.1074402844492 
2842.157638966747 
2617.915725171588 
2477.361237702774 
2359.9653856372756 
2248.750490272566 
2139.073955389889 
2030.6900681810332 
1924.3695295122147 
1820.906270775007 
1720.8406905873344 
1624.4430540674462 
1531.7725510507353 
1442.7474792518533 
1357.2031439078946 
1274.932496290076 
1195.711556549559 
1119.3136878364448 
1045.5165951827125 
974.1050035444575 
904.871004452486 
837.6133504530474 
772.1367100270716 
708.2523824141873 
645.7838472680917 
584.5847039625786 
524.5831501705493 
465.86954402866223 
408.8131649226947 
354.00922795659596 
301.2337585431256 
244.32774542756087 
213.43978523118267 
</DataArray>
<DataArray type="Float64" Name="Nodal_sigma_yy" NumberOfComponents="1" format="ascii" >
-499.7321735404041 
-250.48378062831642 
-37.635831230121795 
-68.47120778207614 
-59.82315656719288 
-52.73858443153287 
-45.764938250597055 
-40.25788001208343 
-35.53663419015598 
-31.412288645026138 
-27.7370885847279 
-24.432102690121184 
-21.44503899717685 
-18.740640825960554 
-16.29270621779291 
-14.080156287946252 
-12.084839241663914 
-10.290455458279347 
-8.682061599492208 
-7.245871920048714 
-5.969211149672368 
-4.840594760867994 
-3.850066581227498 
-2.990189256189346 
-2.2585508799268013 
-1.6629894101470288 
-1.2306417824754448 
-1.012501330546164 
-1.0685332123024054 
-1.1642385682114353 
0.034780399987603516 
16.956706266440612 
32.68765822765613 
-491.12126272147276 
-307.6253957446404 
-124.19773131690711 
-122.83154721797287 
-115.10724748659547 
-101.97867424116515 
-89.25431407662158 
-78.2975179696644 
-68.8137076437801 
-60.51990846100007 
-53.197090968483856 
-46.683542051696904 
-40.858129078191624 
-35.63028202347333 
-30.931128968451926 
-26.70660920159554 
-22.912558511235467 
-19.51149815056067 
-16.470670733511028 
-13.760912564712607 
-11.35608683240721 
-9.233006714371921 
-7.372109133767383 
-5.759715765572893 
-4.3935656987919405 
-3.2937464462810557 
-2.5179547467624865 
-2.1615859351503572 
-2.256227572476507 
-2.2059602251735217 
1.5464935028126683 
26.551796991832788 
48.009109809417055 
-461.76688551074403 
-383.0044012868014 
-270.3235502018356 
-230.91368128221325 
-215.31088481066757 
-193.52572307305218 
-170.74032514579898 
-149.6861932390471 
-131.00154867746286 
-114.60506980687504 
-100.23181404683723 
-87.58550754986724 
-76.40119391247715 
-66.46303953416896 
-57.602137554264644 
-49.687037158363054 
-42.613710672170484 
-36.29745303444923 
-30.667159289888573 
-25.661629768468607 
-21.227434313671928 
-17.318118419861328 
-13.895105779281021 
-10.931624229759635 
-8.422202871179021 
-6.4001204810360415 
-4.956649003711691 
-4.21692462220023 
-4.092815011590224 
-3.2801493687149987 
4.044260477162665 
34.08542361441174 
57.66892865715956 
-383.2665204591881 
-374.5572368737721 
-347.75376497018505 
-317.7215258298438 
-293.885199229823 
-267.213121245891 
-237.28325671466433 
-208.02995630541486 
-181.40169209928897 
-157.92315058652858 
-137.44486020407098 
-119.59052166252462 
-103.95816942837098 
-90.19765991807614 
-78.02783580664675 
-67.22946374376073 
-57.63141592170115 
-49.09753603387293 
-41.51652161884225 
-34.7949640752384 
-28.852994232537938 
-23.622038264570765 
-19.04467415416852 
-15.07738178744476 
-11.697784247990132 
-8.917081317919681 
-6.789378416537019 
-5.372651046548096 
-4.486661183230446 
-2.864158581156059 
3.554215747342021 
22.406055192903573 
36.10172126130122 
-244.02384468448815 
-289.9948286587427 
-347.9378947758207 
-356.70919824751047 
-341.8751538821403 
-313.82836407754337 
-279.6468492779733 
-244.9969128424911 
-213.00946873987482 
-184.72744315830403 
-160.14116214829187 
-138.83675485331915 
-120.31767047390211 
-104.1332492021674 
-89.91474147575366 
-77.37241634928878 
-66.28026110292635 
-56.45972204537033 
-47.76650436558418 
-40.08111115377724 
-33.302560961577214 
-27.344444916644825 
-22.132571621408957 
-17.603583936901146 
-13.703909080661987 
-10.388025109070611 
-7.614087536087242 
-5.333799111338158 
-3.473953484874773 
-1.9228486663160167 
-0.581423848385076 
0.4761352792952458 
0.9071361360331256 
-64.18642168814222 
-154.6775436675693 
-289.4000016643458 
-344.5207662159842 
-346.68212611535023 
-321.48243209069494 
-286.67930248608076 
-250.82857232705794 
-217.617866412351 
-188.2517445309026 
-162.7656506489573 
-140.74837378906736 
-121.68555147917658 
-105.10084055419944 
-90.59844076011981 
-77.86357446432919 
-66.6485897058112 
-56.757003458219856 
-48.03004373363103 
-40.33667869663409 
-33.56666363096829 
-27.625601139515815 
-22.430682883459593 
-17.905237886078012 
-13.96945264402956 
-10.525086192326157 
-7.439939204386046 
-4.573327183032755 
-1.9950847023761407 
-0.8090696235147536 
-4.8941120868772945 
-21.947722974437475 
-34.913711583144455 
141.32823718692833 
5.61730813401244 
-201.63376612381114 
-288.9017040940473 
-298.0333839335002 
-277.10560833552387 
-246.82723774069814 
-215.71759684702775 
-186.9878015694623 
-161.59052386989094 
-139.53621497000694 
-120.48191394480818 
-103.99968160536217 
-89.68768521585838 
-77.20610712272497 
-66.27979478097704 
-56.68877034260956 
-48.2563281304183 
-40.838559243189664 
-34.31630281945751 
-28.589281387909143 
-23.571622358188694 
-19.187504716884966 
-15.364905409060293 
-12.024373488896082 
-9.060051477908 
-6.318833818950015 
-3.6231128266706154 
-1.0171711854849441 
0.23105611693041972 
-5.622910940747187 
-34.671619224144216 
-57.865850972530026 
345.1586759021367 
139.75523258958157 
-117.166099004858 
-177.94951696434987 
-182.5802824672107 
-168.97996395987832 
-150.2652940847392 
-131.30163506090122 
-113.83976071734719 
-98.38185252889697 
-84.923900534415 
-73.2724474117781 
-63.18445905768362 
-54.42731528461032 
-46.79995785136758 
-40.13608603993069 
-34.300213021299825 
-29.18185731518702 
-24.69010375418728 
-20.74923165983113 
-17.295393864465908 
-14.2739863766968 
-11.637058264374687 
-9.339645842649741 
-7.333234781237405 
-5.55439020209969 
-3.9103227020942146 
-2.2822547127991637 
-0.6354200536259889 
0.4059995975650086 
-2.7924387559390613 
-27.521007541946133 
-48.83071550126269 
441.82610162367894 
191.03773685857917 
-79.60894047953514 
-104.52633742668328 
-106.24770877814984 
-97.65040767148722 
-86.7705721446739 
-75.85607745686158 
-65.8117815817786 
-56.89494989949034 
-49.10753379685431 
-42.349314444023676 
-36.49048710618591 
-31.403606830368474 
-26.976048249892614 
-23.112814034028247 
-19.735230843018584 
-16.77832803692587 
-14.188172283526143 
-11.919614589376991 
-9.934512644769754 
-8.200298840052923 
-6.6886180551629835 
-5.373546155859323 
-4.228552982697096 
-3.2212247710768267 
-2.3054076395861927 
-1.419463304096574 
-0.5103744472158773 
0.16174473985397597 
-0.8863149613717418 
-17.75834226886063 
-33.37527789635919 
</DataArray>
<DataArray type="Float64" Name="Nodal_sigma_xy" NumberOfComponents="1" format="ascii" >
-243.09069343183495 
-118.4958461676596 
-12.30882622080473 
-41.45548397332798 
-54.92791291477157 
-57.27116595419746 
-55.8477604110975 
-53.726198525962 
-51.669879191936545 
-49.867504556218194 
-48.29648658616786 
-46.88274270807601 
-45.560250215476955 
-44.28784320513974 
-43.04702132994615 
-41.83459846651017 
-40.65577040133819 
-39.51922957038972 
-38.43427724915 
-37.40939172685423 
-36.45168052152582 
-35.56670767180806 
-34.75811181106401 
-34.02597381130971 
-33.36172020330147 
-32.7352105216319 
-32.06742325983551 
-31.185530160492196 
-29.787723881876545 
-27.610306700600084 
-25.77247638447726 
-35.77621227623982 
-46.31455739545849 
-162.73501778619865 
-118.65551745040224 
-77.17453784508672 
-91.70118899296097 
-107.45078914073622 
-110.45326639646187 
-107.4501013710316 
-102.92705667374904 
-98.4661306427173 
-94.4899467896815 
-90.99760173585784 
-87.87048575532506 
-84.99136980420246 
-82.27976641684194 
-79.69236423295735 
-77.21265830473848 
-74.84003222013918 
-72.58159172002166 
-70.44705337984031 
-68.4459882701497 
-66.58655730896012 
-64.87494163208291 
-63.314621077830736 
-61.90421131298917 
-60.63148310042938 
-59.45958291761032 
-58.30147974947407 
-56.98953576854221 
-55.30089213505756 
-53.280013427695074 
-52.67664153318995 
-60.66140178480399 
-68.19597888689196 
-44.551019895110755 
-109.41041874012762 
-178.76690313182215 
-192.66023241869516 
-205.57186331642242 
-206.8233827764069 
-200.11247418538417 
-190.93751158845674 
-181.86226296748043 
-173.66409219020386 
-166.38925092083502 
-159.86423069976343 
-153.9003248668668 
-148.35764448712456 
-143.15112645696843 
-138.23757760027596 
-133.60028861609126 
-129.23688431212724 
-125.15133540331752 
-121.34936047913729 
-117.8360861452862 
-114.6149389964663 
-111.68689862366966 
-109.04926800215215 
-106.6930342672098 
-104.59818134252549 
-102.72893431845668 
-101.04223129396703 
-99.55784290062746 
-98.59915215208966 
-99.05308167273674 
-99.29035831129715 
-98.79649530017286 
-12.93223032814321 
-107.84274530269803 
-233.83297081177568 
-272.7575864127104 
-280.9695310441163 
-276.91157467434317 
-266.1546781534987 
-253.29944651495222 
-240.71967250100835 
-229.20466295477024 
-218.825860844686 
-209.42379448115292 
-200.81221940178574 
-192.84443762866047 
-185.42265729906683 
-178.4882231065382 
-172.0085582207089 
-165.9663831446757 
-160.35234754784005 
-155.16058402644228 
-150.38632809432963 
-146.02492642085244 
-142.07203403110682 
-138.52565485592328 
-135.3921617246731 
-132.70052168619935 
-130.5296142826935 
-129.04313748234324 
-128.4709959077211 
-128.78299398326322 
-128.18827218157824 
-119.24606917868655 
-111.23744928710236 
-51.0906706940738 
-139.1076936459382 
-265.0246753496811 
-311.9081265787016 
-318.26929730800083 
-309.45553185664653 
-296.075478551451 
-281.7428733732615 
-267.8792418139763 
-254.95202088236306 
-243.0261617968161 
-232.02733627066755 
-221.85413056523112 
-212.41725092292324 
-203.64826574747627 
-195.4973749527236 
-187.9284623053938 
-180.91451019702976 
-174.43421925411502 
-168.46981147578015 
-163.0057884162031 
-158.02857884038065 
-153.52754482920062 
-149.49895227266728 
-145.95653110572525 
-142.9545871096513 
-140.6275562728295 
-139.22436136223712 
-139.0114876445723 
-139.61617800757602 
-138.06616884345323 
-125.6481016133699 
-115.1658884215098 
-130.99528825167795 
-196.26083893584666 
-286.07896497749084 
-312.08907273326133 
-308.38774747551497 
-296.82062881803 
-283.9410759238721 
-271.1164698256367 
-258.5976494457601 
-246.5173028593623 
-234.987332719935 
-224.08572142047296 
-213.85245216997427 
-204.29693475247828 
-195.4082924198819 
-187.16426694935458 
-179.5375460211555 
-172.4997102233479 
-166.0234129022983 
-160.0834149432153 
-154.65699359500766 
-149.7241970633534 
-145.26856690558026 
-141.27948576307244 
-137.75842704626007 
-134.73287490097897 
-132.28124750798165 
-130.5603292039471 
-129.7720078678751 
-129.82990266303557 
-128.93798930005352 
-119.90320929974044 
-111.95401990130718 
-243.67071942154533 
-268.9255628336475 
-283.2360362595633 
-262.74524234244404 
-247.24846206702884 
-236.80906835663254 
-228.09107224526818 
-219.46616612101488 
-210.4827902901806 
-201.2399808538019 
-191.99931877372433 
-183.00330491555317 
-174.42012923735624 
-166.3444798584783 
-158.81621563466044 
-151.84024185600654 
-145.40204264646206 
-139.47810357763476 
-134.0421634171698 
-129.0685727494856 
-124.5338499566891 
-120.41717653915784 
-116.70017455191253 
-113.36583143306947 
-110.39583626755848 
-107.76514753749336 
-105.43409816282431 
-103.34848921476228 
-101.49511374554686 
-100.13497070249622 
-100.12742997362905 
-100.22527877479381 
-99.83504945225104 
-374.33633037957634 
-299.7429487865079 
-192.9323093958598 
-150.9271643829192 
-138.15736412334616 
-133.71629287151194 
-130.67840377804967 
-127.06733145274382 
-122.62593475925812 