<?xml version="1.0"?>
<VTKFile type="UnstructuredGrid" version="0.1" byte_order="LittleEndian" compressor="vtkZLibDataCompressor">
<UnstructuredGrid>
<Piece NumberOfPoints="297" NumberOfCells="256">
<PointData>
<DataArray type="Float64" Name="displacement" NumberOfComponents="3" format="ascii" >
0.0 0.0  0.
-0.22609599027516844 -0.07412374392694138  0.
-0.4137747752119369 -0.12757530723188656  0.
-0.5997578305897344 -0.21196427437923393  0.
-0.7809191953778664 -0.3261986528987295  0.
-0.956949291525554 -0.4695462320460115  0.
-1.1304786345580902 -0.6390074047236238  0.
-1.3039959901796059 -0.8324531218173511  0.
-1.4794380666128832 -1.0480853649768274  0.
-1.658263815338704 -1.2843574212804405  0.
-1.8415511783754486 -1.5398681080037122  0.
-2.030079390734007 -1.813314933307226  0.
-2.224391108968857 -2.1034685916658247  0.
-2.4248392034874775 -2.4091626556127084  0.
-2.631621936981764 -2.729290497167883  0.
-2.8448098979540535 -3.062805226556184  0.
-3.064367087646112 -3.408720244067717  0.
-3.290167810076253 -3.7661093157333556  0.
-3.522010454473365 -4.134105796426317  0.
-3.759628888449603 -4.511900984618385  0.
-4.0027019410339815 -4.898741741606999  0.
-4.250861300238527 -5.293927542648416  0.
-4.503698045132857 -5.696807096144004  0.
-4.7607679619890595 -6.106774575542771  0.
-5.02159578614229 -6.523265316467298  0.
-5.285678705804383 -6.945750447638052  0.
-5.552490339333277 -7.373729264437363  0.
-5.821489003682834 -7.806717367573107  0.
-6.092141846383678 -8.244229276451996  0.
-6.363990887166494 -8.685761170307561  0.
-6.636845032628393 -9.130824377116282  0.
-6.911139593209241 -9.579239666142534  0.
-7.189220184650177 -10.033241874691797  0.
0.0 0.0  0.
-0.14000641585379797 -0.036054110188086  0.
-0.2995277161977692 -0.10442389977111174  0.
-0.445598826507587 -0.20064639247062596  0.
-0.589836971178756 -0.3304201390176728  0.
-0.7344596556771998 -0.4895407585106021  0.
-0.88089765106468 -0.6749434435687076  0.
-1.030592721666945 -0.8842814388899249  0.
-1.1848727397202738 -1.1156814023280528  0.
-1.3448091266983548 -1.3675055913816188  0.
-1.5112119227111631 -1.638262550866894  0.
-1.684654442819618 -1.926560505102161  0.
-1.8655074524826214 -2.231088683866318  0.
-2.0539721953558936 -2.550610781601078  0.
-2.250109540949586 -2.883963402580564  0.
-2.4538644741362328 -3.230055672117275  0.
-2.665086235870526 -3.587868451233612  0.
-2.8835447507644334 -3.9564526631806376  0.
-3.1089440178243337 -4.334926728314173  0.
-3.3409330532767614 -4.722473278022129  0.
-3.5791148556346712 -5.118335349405721  0.
-3.823053748691073 -5.521812232192226  0.
-4.072281355737933 -5.932255084164682  0.
-4.326301362453098 -6.349062364185197  0.
-4.584593136299887 -6.771675064966646  0.
-4.846614245759557 -7.199571720409579  0.
-5.111802200549925 -7.632263428479032  0.
-5.379577226152915 -8.069290418433463  0.
-5.649352328030091 -8.510225688695277  0.
-5.920572490254357 -8.954704382004136  0.
-6.192828697721156 -9.402514100561763  0.
-6.466259469094848 -9.853812324905379  0.
-6.742177422140229 -10.30822050892916  0.
0.0 0.0  0.
-0.09464168060614722 -0.01795362836384485  0.
-0.19981640445131765 -0.08986958512620308  0.
-0.30812938769370823 -0.19882493525069092  0.
-0.41722670671019424 -0.34114512718104906  0.
-0.5302700275615666 -0.513964287868665  0.
-0.6486497612102399 -0.7137057756943437  0.
-0.7734191542654273 -0.9377248947888152  0.
-0.9054709125090606 -1.183912519234747  0.
-1.0455324640259003 -1.4504701017915065  0.
-1.1941411600660392 -1.7357754393455544  0.
-1.3516501651492865 -2.0383263665538522  0.
-1.5182458284101614 -2.356717719693154  0.
-1.6939698352434631 -2.689633706142484  0.
-1.878741583847949 -3.0358455517792065  0.
-2.072378770587914 -3.394210060700056  0.
-2.274615328705192 -3.7636674365608203  0.
-2.4851165808740863 -4.143238022557764  0.
-2.7034918081996655 -4.532018117496819  0.
-2.9293045698213716 -4.92917515736769  0.
-3.162081122143655 -5.3339425328753975  0.
-3.401317247186687 -5.745614251770707  0.
-3.6464837361958486 -6.163539603066535  0.
-3.8970306968454427 -6.587117978109433  0.
-4.152390760730452 -7.015794114006292  0.
-4.411981177674518 -7.449054363608742  0.
-4.675204831367467 -7.886425338084317  0.
-4.9414507904241205 -8.327477383294593  0.
-5.210098007770154 -8.771836077880799  0.
-5.480532591815299 -9.219197938410215  0.
-5.752209893409823 -9.669316074871315  0.
-6.024712441605969 -10.121701515923577  0.
-6.297191567137565 -10.574693396058116  0.
0.0 0.0  0.
-0.05738511172972933 -0.015201479687942582  0.
-0.11893205101697354 -0.08870991601953683  0.
-0.18681034241728126 -0.20621664540649332  0.
-0.26083068218148575 -0.35969711555808437  0.
-0.3419487297380714 -0.5445489543218129  0.
-0.4315217937299316 -0.7571764477795289  0.
-0.5304315155295628 -0.9946444565220992  0.
-0.6393069623788293 -1.2546054314452404  0.
-0.7585901602349787 -1.5350574945523103  0.
-0.8885621657241797 -1.8342120373263275  0.
-1.0293543785423431 -2.15042810958578  0.
-1.1809622433955749 -2.4821852654615095  0.
-1.3432612314420804 -2.828072750688511  0.
-1.5160239831945441 -3.1867845911261283  0.
-1.6989370718281833 -3.5571158029002716  0.
-1.8916163729660203 -3.937958014514492  0.
-2.093620528259774 -4.328294158379845  0.
-2.3044623758457687 -4.727192416882943  0.
-2.523618446994595 -5.133799735595672  0.
-2.7505367349434997 -5.547335187073525  0.
-2.984642974675988 -5.967083401649647  0.
-3.2253456704814867 -6.392388237787553  0.
-3.4720401012541653 -6.822646889614259  0.
-3.7241115429135476 -7.257304779740939  0.
-3.980937978068213 -7.695851922199752  0.
-4.241892522406021 -8.137821880626825  0.
-4.506345401013168 -8.582794279613449  0.
-4.773663052012206 -9.03039767216106  0.
-5.043195680300022 -9.480293067468068  0.
-5.314216777241143 -9.93206493972838  0.
-5.585680183601957 -10.384911119848478  0.
-5.8556533047888575 -10.837218777842475  0.
0.0 0.0  0.
-0.02307011401721871 -0.02128347203384487  0.
-0.04709629188282583 -0.09962951823668456  0.
-0.07743022484016135 -0.2244758214646328  0.
-0.11640342025999795 -0.38748973613533216  0.
-0.16550372830186144 -0.5830563263092722  0.
-0.22591698286062178 -0.8072245466737377  0.
-0.29843866696478183 -1.0569400352115887  0.
-0.3835164305471632 -1.3296549618583755  0.
-0.4813745907484255 -1.6231567284693535  0.
-0.5920733785243357 -1.9354608071033057  0.
-0.7155389135831985 -2.2647577082858263  0.
-0.8515813032319415 -2.609387156846146  0.
-0.9999101437947421 -2.9678249202152127  0.
-1.1601495115575275 -3.3386742189468452  0.
-1.3318524582121718 -3.720658205824022  0.
-1.5145144646848558 -4.11261223879096  0.
-1.7075854179636925 -4.513475717405283  0.
-1.9104799094811618 -4.922283643807189  0.
-2.122585852189457 -5.3381581577549495  0.
-2.343271538074441 -5.7603002633354246  0.
-2.571891325216145 -6.187981904809171  0.
-2.8077901872763316 -6.620538504306462  0.
-3.0503074204783824 -7.057362066931147  0.
-3.2987799284787402 -7.497894999892683  0.
-3.552545694234349 -7.941624856386641  0.
-3.8109480839830523 -8.388080149758979  0.
-4.073340359462451 -8.8368265400793  0.
-4.33908387357889 -9.287459423271779  0.
-4.607512271820985 -9.739578205047984  0.
-4.877787929436433 -10.192707105532849  0.
-5.148560278686533 -10.646124884962186  0.
-5.417432749900578 -11.098601708629392  0.
0.0 0.0  0.
0.010489940053068948 -0.03291236455888814  0.
0.021504400458423858 -0.12028830927313457  0.
0.026522098597100797 -0.2536783487934429  0.
0.021584748825431828 -0.4256248420457828  0.
0.004096507398326093 -0.6307424079908203  0.
-0.027334605813430123 -0.8652891676721701  0.
-0.07342959688376155 -1.12618869638991  0.
-0.13451456150157823 -1.4107443591875166  0.
-0.21065645298823732 -1.7165280505137719  0.
-0.30174291047412594 -2.0413371172822177  0.
-0.40752519115394953 -2.383168419129067  0.
-0.5276449905667152 -2.740200619258823  0.
-0.6616542175206734 -3.1107798735871386  0.
-0.809031625862366 -3.4934069110753354  0.
-0.9691974750512238 -3.886724624402387  0.
-1.1415264648988188 -4.289505941191794  0.
-1.3253589429669672 -4.70064202152854  0.
-1.520010396451252 -5.119130912479704  0.
-1.7247793111175478 -5.544066782157108  0.
-1.9389535419935298 -5.974629815098968  0.
-2.1618153825513877 -6.410076805762829  0.
-2.3926455570523664 -6.849732444597998  0.
-2.6307264295682677 -7.292981239325044  0.
-2.8753448746586234 -7.739259915292966  0.
-3.125795532867416 -8.188049923247075  0.
-3.3813854478517444 -8.638869256587814  0.
-3.641440589934311 -9.09126225060625  0.
-3.9053100387088575 -9.544786177498425  0.
-4.172346703064494 -9.998998207091171  0.
-4.441787383897183 -10.453458880669725  0.
-4.712372953572896 -10.907726572301828  0.
-4.981682945482502 -11.361185270146231  0.
0.0 0.0  0.
0.045250170669304424 -0.04913874302369484  0.
0.091201650396342 -0.14993377995190782  0.
0.13123500629149373 -0.2938147534839949  0.
0.15922224215713965 -0.47426696507461175  0.
0.17233075727622815 -0.6880754543683247  0.
0.16917500963576218 -0.9321336377128304  0.
0.1490678174086539 -1.2034560850879639  0.
0.11174549674743194 -1.4991914058827545  0.
0.05723205484671181 -1.816680973396833  0.
-0.014239445385183956 -2.153487494411543  0.
-0.10228088399594143 -2.507400418985259  0.
-0.20638736714084938 -2.876426794365682  0.
-0.32596564354578245 -3.258775561551728  0.
-0.46035596542495544 -3.6528396257088582  0.
-0.6088494037493356 -4.057177864089161  0.
-0.7707017954266442 -4.470498027957786  0.
-0.9451450448123302 -4.891640899895236  0.
-1.1313962553694477 -5.319565785433264  0.
-1.3286650387310501 -5.753337294524488  0.
-1.536159279467077 -6.192113320176153  0.
-1.7530895938494948 -6.63513410396378  0.
-1.9786726976259894 -7.081712261766305  0.
-2.2121338965648323 -7.5312235966136445  0.
-2.4527089666528394 -7.983098400573315  0.
-2.6996458786712365 -8.436812673844049  0.
-2.9522073289952835 -8.891878250570482  0.
-3.2096760832565896 -9.34783052558666  0.
-3.471367255899441 -9.804214287448762  0.
-3.7366509138085324 -10.260577692558495  0.
-4.004977357440075 -10.716519311521854  0.
-4.275687156451842 -11.17190402210567  0.
-4.546979558116734 -11.627031799643397  0.
0.0 0.0  0.
0.0829573429884829 -0.07204229701648247  0.
0.16878852954661958 -0.1915562646791178  0.
0.24306332069349018 -0.34442453804524187  0.
0.30225177350553 -0.5326076962451146  0.
0.34450719870387186 -0.7545842771809795  0.
0.3685580856932531 -1.0078177910765609  0.
0.37366682049725486 -1.289290707995868  0.
0.35953697473359386 -1.5959407165011819  0.
0.3262211102294201 -1.924857229768594  0.
0.27403255767038115 -2.273366541979087  0.
0.2034732220169936 -2.639055731023008  0.
0.11517830077708856 -3.0197666419431695  0.
0.009875717266983762 -3.4135767057423863  0.
-0.1116432777053111 -3.818775463376588  0.
-0.24854551308577424 -4.233841023011092  0.
-0.39997171678219573 -4.657418203437892  0.
-0.5650483976732389 -5.088298882111527  0.
-0.742896876761638 -5.525404520520652  0.
-0.9326401765996943 -5.967770642495441  0.
-1.1334082423519731 -6.414533002234363  0.
-1.344341820874226 -6.864915198524288  0.
-1.5645952208472018 -7.31821752165848  0.
-1.7933380820252363 -7.773806838941371  0.
-2.02975617865151 -8.23110732908029  0.
-2.2730512276535393 -8.68959188871837  0.
-2.5224399586320865 -9.1487741431034  0.
-2.777154450651888 -9.608201518615536  0.
-3.0364516310689176 -10.06745125659986  0.
-3.2996598153453807 -10.526136127675105  0.
-3.5663221497493947 -10.983936279682242  0.
-3.836614589128777 -11.440783259646848  0.
-4.11108565234485 -11.897904521608682  0.
0.0 0.0  0.
0.14284205540320966 -0.11853398710273125  0.
0.2627853850216216 -0.2439569442189756  0.
0.3669320213764356 -0.40334699477899255  0.
0.4551254447893039 -0.5986676943330985  0.
0.5251921649060866 -0.8290983263736171  0.
0.5754604670033292 -1.0919371682774157  0.
0.6049311347423277 -1.3839137405603972  0.
0.6132139363992294 -1.7016900490226683  0.
0.6003789689345266 -2.042106220730814  0.
0.5668231448645534 -2.402277076814794  0.
0.5131658031485751 -2.7796164317061987  0.
0.44017320598787707 -3.1718267216422897  0.
0.3487059359822409 -3.57687425956446  0.
0.23968292215466305 -3.992960404038327  0.
0.11405683394524718 -4.4184934503559505  0.
-0.02720298273714671 -4.852063092725313  0.
-0.18312258834612635 -5.292417867405365  0.
-0.35273217516128086 -5.7384453839017375  0.
-0.5350724400383631 -6.189154966021139  0.
-0.7291992287607316 -6.643662317932519  0.
-0.9341868490342334 -7.101175881291588  0.
-1.149130301175739 -7.560984607640422  0.
-1.3731465445296345 -8.022446935046164  0.
-1.6053747518067556 -8.484980892047092  0.
-1.84497528978785 -8.948055645067399  0.
-2.091127093170261 -9.411185934530595  0.
-2.343023949336018 -9.873933601201383  0.
-2.5998752064273583 -10.335926673714864  0.
-2.8609315761335687 -10.796915577729813  0.
-3.1256268464442125 -11.25690548339432  0.
-3.394054345678629 -11.716284419046318  0.
-3.669410926648534 -12.175493486738898  0.
</DataArray>
<DataArray type="Float64" Name="Nodal_sigma_xx" NumberOfComponents="1" format="ascii" >
-3227.5153453367316 
-3088.6369403154713 
-2860.2640480109344 
-2674.579454801222 
-2476.5005693120165 
-2280.2617687986176 
-2100.9585317376004 
-1939.2452535276175 
-1792.32893327011 
-1657.2921565054935 
-1531.8281336913672 
-1414.2697600600807 
-1303.4460119780706 
-1198.5246985786525 
-1098.8882084888437 
-1004.0489320029076 
-913.5967979823415 
-827.1689023521789 
-744.4328459123564 
-665.0779352907053 
-588.8106079194986 
-515.3520951320799 
-444.43764733371563 
-375.8180911998105 
-309.2668178867364 
-244.59933175091467 
-181.71794424096262 
-120.69390125231683 
-61.865935740966336 
-5.751556258061775 
48.022969800218036 
105.81505416986866 
137.14402543481322 
-2769.4563002841933 
-2719.5649215538706 
-2570.373985589007 
-2379.251507270001 
-2195.957495763843 
-2019.5433119358386 
-1857.3926990093312 
-1710.0879156459807 
-1575.839514731531 
-1452.4253085611754 
-1337.9624298087283 
-1231.0186848439466 
-1130.541486602161 
-1035.7503845150377 
-946.0457333338869 
-860.9436177178868 
-780.0338413788445 
-702.9544699363479 
-629.3770356462327 
-558.9981087727178 
-491.53446711650446 
-426.72026157014704 
-364.30541620703355 
-304.055160428587 
-245.7512029203367 
-189.19556386992667 
-134.21754356798988 
-80.67945352976503 
-28.4558037410302 
22.686964654593112 
73.42605332375668 
124.48981243390965 
150.1577183441496 
-1959.019486550248 
-1978.5475058915385 
-1919.8302650514847 
-1763.173449325463 
-1613.0086430196166 
-1475.01409870323 
-1348.0047710134397 
-1231.65469284967 
-1125.0840131535535 
-1027.0870716386346 
-936.5235852720751 
-852.4374874418484 
-774.0526372887686 
-700.7360182518688 
-631.9612884069412 
-567.28049000902 
-506.30398938963583 
-448.6867724496033 
-394.11915959720443 
-342.32043385143135 
-293.0343278592856 
-246.02560495685407 
-201.07694504129702 
-157.98471705166378 
-116.55041860079892 
-76.56084235760805 
-37.7446753996952 
0.30737072469280413 
38.23850778967719 
76.85049171845237 
116.08175948871576 
150.71206336233348 
165.68987223514472 
-1255.012217494426 
-1241.9470721187654 
-1187.6975149737275 
-1090.581971709545 
-982.6919639128665 
-884.0202580128586 
-794.8711729304363 
-713.5989269245641 
-639.1064163708093 
-570.6629594936691 
-507.69951215933327 
-449.72132290254416 
-396.27204775040997 
-346.92425325616654 
-301.28011423874676 
-258.97404538464707 
-219.67400556192845 
-183.0809171668732 
-148.92666303855867 
-116.97130887603036 
-87.00003948472626 
-58.81998417015253 
-32.25659382823032 
-7.148255200314843 
16.664058504862886 
39.358310125171286 
61.172469951237154 
82.46401302735052 
103.72798032606482 
125.32052957890919 
146.321887789835 
163.08158130706877 
169.73783049470995 
-533.0998674826203 
-499.1790165631035 
-432.11705967182314 
-365.6476420884934 
-302.8712822295019 
-248.27837772273386 
-200.8388562260443 
-158.28306740799655 
-119.51769023261205 
-84.1996518510347 
-52.22461063436866 
-23.487004378867873 
2.1827100809701037 
25.010070964663413 
45.249970843953015 
63.16221425546781 
78.9949388853637 
92.97558106300264 
105.3073049572886 
116.16879530688934 
125.7158420928178 
134.08372812705582 
141.38989886133965 
147.7367053019877 
153.21412513829415 
157.902146845013 
161.87166119875917 
165.18099852861766 
167.86426743369827 
169.91658790568 
171.32886706194984 
172.24946031800508 
172.62274957075695 
245.22848037453406 
290.69975094300355 
364.5245685112207 
404.57629408688007 
420.6561926168274 
426.78992881754755 
429.36499267720654 
430.57134781100956 
430.8819520811159 
430.146649898231 
428.13080714390617 
424.70054083567516 
419.8458148122571 
413.6473497546464 
406.235957151149 
397.7606080878828 
388.36794060184366 
378.1911279071177 
367.3450963088668 
355.92552422308256 
344.0097993624481 
331.6587000466455 
318.9177472168143 
305.8166435359939 
292.3634927446685 
278.52720369189376 
264.19822873915086 
249.12514571534905 
232.88167728171885 
215.1239754399397 
196.77088033766287 
181.77745704682638 
175.8577201352016 
1124.455262141251 
1180.4910178693785 
1236.8681500051568 
1219.0125118765645 
1178.651931918834 
1134.4778031222463 
1091.328294672221 
1049.7872236519659 
1009.4878404098084 
970.0260287157325 
931.1339812847739 
892.6776011813861 
854.6143682176744 
816.9526239782004 
779.7219406707013 
742.9547430642402 
706.6764185296288 
670.9009481188341 
635.6297360292045 
600.8520807188967 
566.5463360599949 
532.6811549667503 
499.21618401270825 
466.10092092552463 
433.2686088690757 
400.6182957438991 
367.97285999286873 
335.0002351264874 
301.11832601206925 
265.5705988762689 
228.46834302345843 
195.31855163523662 
180.98277758561636 
2291.3719929863278 
2250.337087470007 
2157.2935959136894 
2056.83949680605 
1962.497681892226 
1872.203328564406 
1784.441258521443 
1698.687365480542 
1614.9704141659188 
1533.4879805174328 
1454.423198650469 
1377.8792232751696 
1303.875430086524 
1232.365355044155 
1163.2579812387235 
1096.4353044689174 
1031.7646536478903 
969.10640867047 
908.3183584003884 
849.2578697268904 
791.7827557988006 
735.7514514910911 
681.0229319978791 
627.4568268759378 
574.9144817680465 
523.2623363899993 
472.3792936343184 
422.1667205550333 
372.5408619595619 
323.3350446762072 
273.98851229452504 
224.00262432648856 
198.83403575045986 
2987.1074402844506 
2842.157638966748 
2617.915725171588 
2477.3612377027735 
2359.9653856372734 
2248.7504902725655 
2139.07395538989 
2030.6900681810325 
1924.3695295122134 
1820.9062707750059 
1720.840690587334 
1624.443054067449 
1531.7725510507391 
1442.747479251857 
1357.2031439078949 
1274.9324962900644 
1195.71155654955 
1119.3136878364458 
1045.5165951827066 
974.1050035444455 
904.8710044524807 
837.6133504530496 
772.1367100270733 
708.2523824141731 
645.7838472680771 
584.5847039625819 
524.5831501705302 
465.86954402865683 
408.8131649227076 
354.00922795655777 
301.23375854309296 
244.32774542756772 
213.4397852311927 
</DataArray>
<DataArray type="Float64" Name="Nodal_sigma_yy" NumberOfComponents="1" format="ascii" >
-499.7321735404049 
-250.48378062831665 
-37.63583123012111 
-68.47120778207533 
-59.8231565671921 
-52.738584431533255 
-45.76493825059816 
-40.257880012083675 
-35.53663419015457 
-31.412288645023835 
-27.737088584724944 
-24.432102690122065 
-21.445038997181896 
-18.74064082597031 
-16.29270621780067 
-14.080156287950672 
-12.084839241670068 
-10.290455458285432 
-8.682061599499178 
-7.245871920040752 
-5.969211149641669 
-4.840594760833415 
-3.8500665812178596 
-2.9901892561793595 
-2.2585508799050924 
-1.6629894101449905 
-1.23064178247735 
-1.0125013305497301 
-1.0685332123087137 
-1.16423856821168 
0.034780399984566834 
16.956706266451118 
32.687658227682505 
-491.1212627214733 
-307.6253957446414 
-124.19773131690891 
-122.8315472179734 
-115.10724748659437 
-101.97867424116475 
-89.25431407662134 
-78.29751796966355 
-68.8137076437794 
-60.519908460999886 
-53.19709096848051 
-46.68354205169486 
-40.858129078192746 
-35.63028202347335 
-30.931128968452228 
-26.70660920159664 
-22.91255851123774 
-19.511498150564357 
-16.470670733516158 
-13.760912564708713 
-11.356086832396382 
-9.233006714365054 
-7.37210913377203 
-5.759715765571311 
-4.393565698776777 
-3.2937464462746933 
-2.5179547467616725 
-2.1615859351515425 
-2.25622757247939 
-2.2059602251732358 
1.5464935028115434 
26.551796991833527 
48.00910980942308 
-461.76688551074415 
-383.0044012868022 
-270.32355020183695 
-230.91368128221362 
-215.31088481066703 
-193.52572307305263 
-170.74032514579915 
-149.68619323904645 
-131.0015486774639 
-114.60506980687838 
-100.23181404683625 
-87.58550754986352 
-76.4011939124746 
-66.46303953416316 
-57.60213755425997 
-49.6870371583621 
-42.613710672169006 
-36.29745303444933 
-30.667159289894986 
-25.66162976846896 
-21.22743431366647 
-17.318118419862593 
-13.895105779290576 
-10.931624229762834 
-8.422202871169592 
-6.400120481038211 
-4.956649003721187 
-4.2169246222084835 
-4.092815011595799 
-3.280149368714172 
4.044260477159202 
34.08542361441279 
57.668928657169104 
-383.26652045918854 
-374.5572368737723 
-347.75376497018453 
-317.7215258298435 
-293.8851992298246 
-267.2131212458935 
-237.28325671466513 
-208.02995630541557 
-181.40169209928962 
-157.92315058652983 
-137.44486020407294 
-119.59052166252596 
-103.95816942836987 
-90.19765991807513 
-78.027835806647 
-67.22946374375802 
-57.63141592169824 
-49.09753603387048 
-41.51652161884573 
-34.79496407524488 
-28.852994232533895 
-23.622038264558967 
-19.04467415416785 
-15.077381787443395 
-11.697784247973248 
-8.917081317917711 
-6.789378416541644 
-5.372651046545748 
-4.486661183222491 
-2.864158581151995 
3.5542157473280915 
22.406055192891266 
36.10172126129446 
-244.02384468448852 
-289.99482865874324 
-347.9378947758211 
-356.70919824751013 
-341.87515388214086 
-313.82836407754445 
-279.64684927797543 
-244.9969128424937 
-213.0094687398729 
-184.7274431583046 
-160.14116214829687 
-138.83675485332407 
-120.31767047390193 
-104.13324920216547 
-89.91474147575711 
-77.37241634928924 
-66.2802611029235 
-56.45972204536302 
-47.76650436558073 
-40.08111115378544 
-33.30256096158068 
-27.34444491663501 
-22.132571621409525 
-17.603583936908404 
-13.703909080655198 
-10.388025109063832 
-7.614087536077538 
-5.333799111324658 
-3.47395348485704 
-1.9228486663105078 
-0.5814238484007039 
0.47613527928124544 
0.907136136021844 
-64.18642168814146 
-154.67754366756913 
-289.40000166434623 
-344.5207662159848 
-346.6821261153518 
-321.48243209069585 
-286.67930248608127 
-250.82857232706004 
-217.617866412352 
-188.25174453090685 
-162.76565064896363 
-140.74837378907316 
-121.68555147917812 
-105.10084055419654 
-90.59844076011939 
-77.86357446432616 
-66.64858970580612 
-56.757003458215955 
-48.03004373363381 
-40.336678696635055 
-33.56666363096501 
-27.625601139514593 
-22.430682883468098 
-17.905237886092813 
-13.969452644032955 
-10.525086192324013 
-7.439939204383902 
-4.573327183033543 
-1.9950847023669658 
-0.8090696235084733 
-4.894112086888343 
-21.94772297443874 
-34.913711583134685 
141.32823718692947 
5.617308134013051 
-201.63376612381117 
-288.9017040940472 
-298.0333839335011 
-277.1056083355242 
-246.82723774069535 
-215.71759684702675 
-186.98780156946447 
-161.59052386989237 
-139.5362149700088 
-120.48191394481545 
-103.99968160536525 
-89.68768521585507 
-77.20610712272277 
-66.27979478097139 
-56.688770342601686 
-48.256328130410374 
-40.838559243189096 
-34.316302819460006 
-28.589281387909807 
-23.571622358191775 
-19.18750471688951 
-15.364905409062532 
-12.024373488889381 
-9.060051477899627 
-6.318833818948565 
-3.6231128266670325 
-1.0171711854658918 
0.231056116949639 
-5.622910940744339 
-34.67161922414549 
-57.86585097252831 
345.1586759021368 
139.75523258958174 
-117.16609900485798 
-177.94951696434958 
-182.58028246721037 
-168.97996395987803 
-150.26529408473775 
-131.3016350608989 
-113.83976071734713 
-98.38185252889838 
-84.92390053441477 
-73.27244741177957 
-63.184459057682155 
-54.42731528460743 
-46.7999578513695 
-40.136086039933836 
-34.300213021296116 
-29.181857315176575 
-24.690103754182086 
-20.749231659836077 
-17.295393864468025 
-14.273986376690297 
-11.637058264371797 
-9.339645842650656 
-7.3332347812329495 
-5.554390202097284 
-3.9103227021062565 
-2.282254712805777 
-0.6354200536134416 
0.40599959757382376 
-2.7924387559411983 
-27.521007541942076 
-48.83071550125157 
441.82610162367826 
191.03773685857897 
-79.60894047953549 
-104.52633742668533 
-106.24770877815232 
-97.65040767148842 
-86.77057214467308 
-75.85607745685861 
-65.8117815817792 
-56.89494989949549 
-49.10753379685486 
-42.34931444401891 
-36.49048710618034 
-31.403606830367117 
-26.976048249895868 
-23.11281403403317 
-19.735230843017952 
-16.77832803692384 
-14.188172283526782 
-11.919614589379869 
-9.934512644771026 
-8.200298840045662 
-6.688618055162465 
-5.373546155869455 
-4.228552982698421 
-3.221224771079072 
-2.3054076396150194 
-1.4194633041231413 
-0.5103744472183998 
0.16174473984199977 
-0.8863149613926975 
-17.758342268860268 
-33.375277896345196 
</DataArray>
<DataArray type="Float64" Name="Nodal_sigma_xy" NumberOfComponents="1" format="ascii" >
-243.09069343183543 
-118.49584616765962 
-12.308826220804566 
-41.455483973328214 
-54.927912914771255 
-57.27116595419661 
-55.84776041109817 
-53.726198525964094 
-51.66987919193734 
-49.867504556217405 
-48.2964865861679 
-46.8827427080748 
-45.56025021547635 
-44.287843205139865 
-43.047021329946766 
-41.83459846651027 
-40.65577040133779 
-39.51922957039034 
-38.43427724914977 
-37.40939172685805 
-36.451680521528864 
-35.566707671811834 
-34.75811181107257 
-34.02597381130705 
-33.361720203298304 
-32.735210521631956 
-32.06742325983435 
-31.18553016049644 
-29.787723881875593 
-27.61030670059487 
-25.772476384476416 
-35.77621227623138 
-46.314557395438136 
-162.73501778619882 
-118.65551745040221 
-77.17453784508663 
-91.70118899296102 
-107.45078914073602 
-110.45326639646161 
-107.4501013710321 
-102.92705667374996 
-98.46613064271685 
-94.4899467896805 
-90.99760173585841 
-87.87048575532478 
-84.99136980420286 
-82.27976641684396 
-79.69236423295851 
-77.21265830473891 
-74.84003222013796 
-72.58159172002061 
-70.44705337983895 
-68.4459882701504 
-66.58655730895912 
-64.8749416320825 
-63.31462107783568 
-61.90421131298662 
-60.63148310042762 
-59.45958291761334 
-58.30147974947292 
-56.98953576854275 
-55.30089213505927 
-53.280013427695565 
-52.67664153318983 
-60.66140178479309 
-68.1959788868714 
-44.55101989511064 
-109.41041874012771 
-178.76690313182257 
-192.6602324186954 
-205.57186331642237 
-206.82338277640702 
-200.11247418538449 
-190.9375115884573 
-181.86226296747998 
-173.6640921902025 
-166.38925092083537 
-159.86423069976541 
-153.90032486686863 
-148.35764448712584 
-143.15112645696897 
-138.23757760027618 
-133.60028861608964 
-129.23688431212386 
-125.15133540330966 
-121.34936047913212 
-117.83608614528791 
-114.61493899646811 
-111.68689862367202 
-109.04926800214955 
-106.69303426720684 
-104.59818134252575 
-102.72893431845775 
-101.04223129397118 
-99.55784290063183 
-98.59915215209273 
-99.05308167273196 
-99.29035831128854 
-98.79649530016775 
-12.932230328143245 
-107.84274530269826 
-233.83297081177616 
-272.7575864127107 
-280.96953104411637 
-276.911574674343 
-266.1546781534987 
-253.2994465149534 
-240.7196725010088 
-229.2046629547689 
-218.82586084468488 
-209.423794481154 
-200.81221940178665 
-192.84443762865988 
-185.4226572990667 
-178.48822310653907 
-172.00855822070918 
-165.9663831446753 
-160.35234754783386 
-155.16058402643455 
-150.38632809432974 
-146.02492642085434 
-142.0720340311092 
-138.52565485592334 
-135.3921617246737 
-132.70052168619952 
-130.5296142826965 
-129.04313748235006 
-128.47099590772396 
-128.78299398326152 
-128.18827218156935 
-119.24606917868327 
-111.23744928710713 
-51.09067069407415 
-139.1076936459384 
-265.0246753496813 
-311.90812657870185 
-318.26929730800094 
-309.45553185664676 
-296.0754785514508 
-281.7428733732614 
-267.8792418139765 
-254.95202088236186 
-243.02616179681434 
-232.0273362706663 
-221.8541305652306 
-212.41725092292484 
-203.64826574747656 
-195.49737495272382 
-187.9284623053951 
-180.9145101970325 
-174.43421925411678 
-168.46981147577733 
-163.00578841620006 
-158.0285788403804 
-153.52754482920534 
-149.49895227267086 
-145.95653110572619 
-142.9545871096517 
-140.62755627283036 
-139.2243613622413 
-139.01148764458236 
-139.61617800758185 
-138.06616884344956 
-125.64810161337256 
-115.16588842151981 
-130.99528825167863 
-196.26083893584712 
-286.07896497749147 
-312.0890727332618 
-308.38774747551514 
-296.8206288180308 
-283.94107592387286 
-271.1164698256362 
-258.5976494457602 
-246.51730285936185 
-234.9873327199332 
-224.08572142047063 
-213.85245216997316 
-204.29693475247944 
-195.408292419882 
-187.16426694935478 
-179.5375460211564 
-172.49971022334847 
-166.02341290229623 
-160.0834149432157 
-154.65699359500823 
-149.72419706335188 
-145.26856690558427 
-141.27948576307205 
-137.75842704625288 
-134.73287490097493 
-132.28124750797906 
-130.5603292039493 
-129.77200786788632 
-129.8299026630448 
-128.93798930005326 
-119.90320929974287 
-111.95401990131708 
-243.67071942154598 
-268.9255628336481 
-283.23603625956395 
-262.74524234244456 
-247.24846206702932 
-236.80906835663347 
-228.0910722452693 
-219.46616612101514 
-210.48279029018116 
-201.2399808538029 
-191.99931877372413 
-183.00330491555158 
-174.42012923735592 
-166.3444798584784 
-158.8162156346598 
-151.84024185600606 
-145.40204264646363 
-139.47810357763848 
-134.0421634171689 
-129.0685727494846 
-124.53384995668854 
-120.41717653915595 
-116.7001745519155 
-113.36583143307152 
-110.3958362675564 
-107.76514753749426 
-105.43409816282565 
-103.34848921476608 
-101.49511374555378 
-100.13497070250361 
-100.12742997363476 
-100.22527877479918 
-99.83504945226028 
-374.3363303795765 
-299.7429487865082 
-192.9323093958601 
-150.92716438291916 
-138.1573641233466 
-133.71629287151256 
-130.67840377805004 