<?xml version="1.0"?>
<VTKFile type="UnstructuredGrid" version="0.1" byte_order="LittleEndian" compressor="vtkZLibDataCompressor">
<UnstructuredGrid>
<Piece NumberOfPoints="85" NumberOfCells="64">
<PointData>
<DataArray type="Float64" Name="displacement" NumberOfComponents="3" format="ascii" >
0.0 0.0  0.
-5.303898910672552 -2.935756819958727  0.
-10.193172064023576 -7.320003887851513  0.
-14.78414974562384 -14.108364630026589  0.
-19.050196985807307 -23.10814985539633  0.
-22.97468639902485 -34.16010158424543  0.
-26.55786864033404 -47.08859547363162  0.
-29.799739768442052 -61.723407919731414  0.
-32.70036481653564 -77.89382215580095  0.
-35.25973952459219 -95.4292396242042  0.
-37.47786366173792 -114.15902832975337  0.
-39.35474628312609 -133.91257253399215  0.
-40.89040677980118 -154.5191865805767  0.
-42.08496567554972 -175.80899428870873  0.
-42.93589083419901 -197.6110190529234  0.
-43.43280367404272 -219.76001938265853  0.
-43.56259143208831 -241.90177099039542  0.
0.0 0.0  0.
-2.3372280672332804 -1.7038689249043486  0.
-4.875811775108962 -6.24954960445834  0.
-7.195690711564059 -13.104843274414229  0.
-9.329203303423501 -22.187378135229128  0.
-11.29120084858678 -33.31543013489955  0.
-13.082714133177088 -46.32081077110048  0.
-14.703650394938958 -61.03237250153386  0.
-16.153963430832416 -77.27957289432094  0.
-17.433651226891616 -94.89177010869138  0.
-18.542713927987727 -113.69834446593917  0.
-19.481143824521524 -133.52865960592257  0.
-20.248905553283095 -154.2121617239155  0.
-20.846067025388052 -175.57794056192202  0.
-21.275257665062668 -197.45683456484701  0.
-21.548687631542695 -219.66553031369847  0.
-21.631494341237246 -242.07010130901816  0.
0.0 0.0  0.
-2.877187499484636e-14 -1.3979042409058102  0.
-5.982005128466143e-14 -5.856866788601764  0.
-9.327878796439404e-14 -12.772740516162852  0.
-1.268125276683699e-13 -21.879732300594895  0.
-1.5748250477909214e-13 -33.03405995723753  0.
-1.8572035789206143e-13 -46.064859834808644  0.
-2.0366753042292197e-13 -60.80203233661824  0.
-2.289578400680724e-13 -77.0748218999524  0.
-2.56760280081431e-13 -94.71261434393598  0.
-2.858414933889716e-13 -113.54478011022117  0.
-3.0492195537446506e-13 -133.40071557087936  0.
-3.196123594696567e-13 -154.10975035123528  0.
-3.2013211987792396e-13 -175.50125742244057  0.
-3.2724965904056453e-13 -197.39980116212436  0.
-3.3649866946039696e-13 -219.63960384292798  0.
-3.203098388655341e-13 -242.12160535068193  0.
0.0 0.0  0.
2.3372280672332226 -1.7038689249043368  0.
4.875811775108838 -6.249549604458323  0.
7.195690711563872 -13.104843274414211  0.
9.329203303423252 -22.18737813522911  0.
11.291200848586465 -33.31543013489952  0.
13.082714133176717 -46.320810771100476  0.
14.70365039493853 -61.03237250153389  0.
16.15396343083194 -77.2795728943209  0.
17.433651226891097 -94.89177010869138  0.
18.542713927987165 -113.69834446593912  0.
19.481143824520935 -133.5286596059225  0.
20.248905553282462 -154.21216172391556  0.
20.84606702538742 -175.57794056192205  0.
21.27525766506202 -197.45683456484707  0.
21.548687631542037 -219.66553031369847  0.
21.63149434123661 -242.07010130901824  0.
0.0 0.0  0.
5.3038989106724825 -2.9357568199586965  0.
10.193172064023447 -7.320003887851477  0.
14.784149745623653 -14.108364630026553  0.
19.05019698580707 -23.108149855396285  0.
22.974686399024552 -34.160101584245396  0.
26.55786864033368 -47.0885954736316  0.
29.79973976844161 -61.72340791973143  0.
32.70036481653513 -77.89382215580092  0.
35.259739524591645 -95.42923962420417  0.
37.47786366173736 -114.15902832975333  0.
39.35474628312553 -133.91257253399212  0.
40.890406779800585 -154.5191865805767  0.
42.08496567554907 -175.80899428870887  0.
42.93589083419834 -197.61101905292338  0.
43.43280367404206 -219.76001938265856  0.
43.56259143208769 -241.9017709903955  0.
</DataArray>
<DataArray type="Float64" Name="Nodal_sigma_xx" NumberOfComponents="1" format="ascii" >
-3995.3629721920433 
-3848.5480266708682 
-3578.5214653972926 
-3327.180174632622 
-3071.1884386911915 
-2815.3331560063984 
-2559.3736357108965 
-2303.4379213557822 
-2047.499876676286 
-1791.5625536982518 
-1535.6248090111442 
-1279.6907610918308 
-1023.7466161638874 
-767.8134963417806 
-511.0673277686178 
-255.6284565526803 
-128.98178166975396 
-2614.560239401996 
-2552.629524317979 
-2397.974018707152 
-2219.088889269132 
-2047.5283890527696 
-1876.843733481031 
-1706.2480653559744 
-1535.6248150058975 
-1365.0001383972485 
-1194.3750176837657 
-1023.7497732225474 
-853.1190736434444 
-682.489822491424 
-511.99861568048635 
-343.1185102367123 
-174.38318231406274 
-89.34802846194368 
-3.069544618483633e-11 
-3.171862772433087e-11 
-3.296918293926865e-11 
-3.2741809263825417e-11 
-3.186073627148289e-11 
-2.935962584160734e-11 
-2.731326276261825e-11 
-2.6972202249453403e-11 
-2.646061147970613e-11 
-2.546585164964199e-11 
-1.7479351299698465e-11 
-1.5219825399981346e-11 
-1.2846612662542611e-11 
-1.035971308738226e-11 
-1.4928502878319705e-11 
-3.7125857943465235e-12 
7.172928917498211e-12 
2614.5602394019324 
2552.6295243179147 
2397.9740187070884 
2219.088889269071 
2047.5283890527091 
1876.843733480971 
1706.248065355915 
1535.6248150058386 
1365.0001383971971 
1194.3750176837236 
1023.7497732225179 
853.1190736434152 
682.4898224913932 
511.9986156804597 
343.1185102366918 
174.38318231406677 
89.34802846196325 
3995.3629721919765 
3848.5480266708037 
3578.5214653972316 
3327.1801746325655 
3071.1884386911343 
2815.3331560063375 
2559.3736357108323 
2303.437921355718 
2047.4998766762362 
1791.5625536982188 
1535.6248090111203 
1279.6907610918029 
1023.7466161638515 
767.8134963417481 
511.0673277686066 
255.62845655269575 
128.98178166977877 
</DataArray>
<DataArray type="Float64" Name="Nodal_sigma_yy" NumberOfComponents="1" format="ascii" >
-582.6649441304235 
-271.00688962577794 
20.523014744082985 
1.413126306486845 
1.077529715803479 
-0.12511645439406038 
0.00697743816175489 
-0.0051763051674527105 
0.0009011647132268763 
-0.0007270295144223837 
0.00010009935563459749 
-0.02358417390946954 
0.1301071955100639 
0.4851506752281338 
5.157744644305261 
-32.98046012236706 
-75.61515933227227 
-399.90492705736955 
-198.43357512594568 
5.576655814873455 
4.6236934415929944 
0.5540895934826402 
-0.02356408928274334 
-0.013358635912652517 
-0.0015618895337361494 
0.0001303656353819349 
-0.00012581548576484636 
-0.0025966610915144628 
-0.010925205633393276 
0.061339260549143404 
0.9163968804525862 
3.387970378580814 
-23.288128447521096 
-51.65911367757869 
-6.23856521997368e-12 
-4.405364961712621e-12 
-1.9824142327706795e-12 
-7.567280135845067e-13 
7.673861546209082e-13 
1.602273869139026e-12 
-6.423306331271306e-12 
-1.0327738664273056e-11 
-5.275779813018744e-12 
-1.4193091146808001e-12 
1.0741629807853315e-11 
6.980194200423284e-12 
-1.0950351736482844e-11 
-2.2639667918156192e-11 
-2.7571500638146063e-11 
-2.4204638293667813e-11 
-2.2716051262250403e-11 
399.90492705735807 
198.43357512593877 
-5.576655814875309 
-4.623693441592103 
-0.5540895934804517 
0.02356408928231346 
0.013358635904666016 
0.001561889523081561 
-0.00013036564058666045 
0.00012581548385526276 
0.002596661096010422 
0.010925205636174162 
-0.06133926056901107 
-0.9163968804925062 
-3.3879703786100586 
23.288128447497428 
51.65911367754546 
582.664944130413 
271.00688962577294 
-20.52301474408273 
-1.413126306483548 
-1.0775297158006367 
0.12511645438999608 
-0.006977438164881278 
0.005176305166799011 
-0.0009011647130847678 
0.0007270295134418348 
-0.00010009936812593878 
0.023584173901070926 
-0.1301071955278985 
-0.4851506752626946 
-5.1577446443086075 
32.980460122368136 
75.61515933225127 
</DataArray>
<DataArray type="Float64" Name="Nodal_sigma_xy" NumberOfComponents="1" format="ascii" >
-321.72209642765466 
-222.9664919727593 
-133.0511254086025 
-145.2598518170795 
-148.8838332152597 
-149.11143881632265 
-149.07353498704063 
-149.06290053109836 
-149.0623912519414 
-149.06250295346874 
-149.06078684745862 
-149.04996455022112 
-149.05761047247097 
-149.67054012503445 
-153.30132834536153 
-148.46695544766004 
-140.59797494336286 
-234.37500000006838 
-234.37500000006708 
-234.3750000000659 
-234.3750000000645 
-234.3750000000656 
-234.37500000006492 
-234.37500000005102 
-234.37500000004908 
-234.37500000004576 
-234.37500000003482 
-234.3750000000311 
-234.37500000000597 
-234.3749999999962 
-234.37500000001364 
-234.37500000003655 
-234.37500000001944 
-234.3749999999863 
-147.02790357248102 
-245.78350802737427 
-335.69887459152955 
-323.49014818304966 
-319.86616678487053 
-319.63856118380744 
-319.67646501306615 
-319.6870994690023 
-319.687608748152 
-319.6874970466009 
-319.68921315259774 
-319.70003544979284 
-319.6923895275248 
-319.07945987499215 
-315.4486716547095 
-320.28304455237753 
-328.1520250566125 
-234.37500000006435 
-234.3750000000653 
-234.37500000006656 
-234.37500000006358 
-234.37500000006202 
-234.3750000000642 
-234.37500000006 
-234.3750000000518 
-234.37500000004925 
-234.37500000003826 
-234.37500000002356 
-234.37500000001108 
-234.3750000000092 
-234.37500000001535 
-234.3750000000314 
-234.3750000000256 
-234.37500000000205 
-321.72209642764875 
-222.96649197275693 
-133.0511254086033 
-145.25985181707728 
-148.8838332152544 
-149.11143881632069 
-149.07353498704907 
-149.06290053109888 
-149.06239125194463 
-149.0625029534756 
-149.06078684745523 
-149.0499645502273 
-149.05761047249013 
-149.67054012503925 
-153.3013283453554 
-148.46695544767508 
-140.59797494338883 
</DataArray>
</PointData>
<CellData>
</CellData>
<Points>
<DataArray type="Float64" Name="Points" NumberOfComponents="3" format="ascii">
0.0 -2.0 0.0
1.0 -2.0 0.0
2.0 -2.0 0.0
3.0 -2.0 0.0
4.0 -2.0 0.0
5.0 -2.0 0.0
6.0 -2.0 0.0
7.0 -2.0 0.0
8.0 -2.0 0.0
9.0 -2.0 0.0
10.0 -2.0 0.0
11.0 -2.0 0.0
12.0 -2.0 0.0
13.0 -2.0 0.0
14.0 -2.0 0.0
15.0 -2.0 0.0
16.0 -2.0 0.0
0.0 -1.0 0.0
1.0 -1.0 0.0
2.0 -1.0 0.0
3.0 -1.0 0.0
4.0 -1.0 0.0
5.0 -1.0 0.0
6.0 -1.0 0.0
7.0 -1.0 0.0
8.0 -1.0 0.0
9.0 -1.0 0.0
10.0 -1.0 0.0
11.0 -1.0 0.0
12.0 -1.0 0.0
13.0 -1.0 0.0
14.0 -1.0 0.0
15.0 -1.0 0.0
16.0 -1.0 0.0
0.0 0.0 0.0
1.0 0.0 0.0
2.0 0.0 0.0
3.0 0.0 0.0
4.0 0.0 0.0
5.0 0.0 0.0
6.0 0.0 0.0
7.0 0.0 0.0
8.0 0.0 0.0
9.0 0.0 0.0
10.0 0.0 0.0
11.0 0.0 0.0
12.0 0.0 0.0
13.0 0.0 0.0
14.0 0.0 0.0
15.0 0.0 0.0
16.0 0.0 0.0
0.0 1.0 0.0
1.0 1.0 0.0
2.0 1.0 0.0
3.0 1.0 0.0
4.0 1.0 0.0
5.0 1.0 0.0
6.0 1.0 0.0
7.0 1.0 0.0
8.0 1.0 0.0
9.0 1.0 0.0
10.0 1.0 0.0
11.0 1.0 0.0
12.0 1.0 0.0
13.0 1.0 0.0
14.0 1.0 0.0
15.0 1.0 0.0
16.0 1.0 0.0
0.0 2.0 0.0
1.0 2.0 0.0
2.0 2.0 0.0
3.0 2.0 0.0
4.0 2.0 0.0
5.0 2.0 0.0
6.0 2.0 0.0
7.0 2.0 0.0
8.0 2.0 0.0
9.0 2.0 0.0
10.0 2.0 0.0
11.0 2.0 0.0
12.0 2.0 0.0
13.0 2.0 0.0
14.0 2.0 0.0
15.0 2.0 0.0
16.0 2.0 0.0
</DataArray>
</Points>
<Cells>
<DataArray type="Int64" Name="connectivity" format="ascii">
0 1 18 17 
1 2 19 18 
2 3 20 19 
3 4 21 20 
4 5 22 21 
5 6 23 22 
6 7 24 23 
7 8 25 24 
8 9 26 25 
9 10 27 26 
10 11 28 27 
11 12 29 28 
12 13 30 29 
13 14 31 30 
14 15 32 31 
15 16 33 32 
17 18 35 34 
18 19 36 35 
19 20 37 36 
20 21 38 37 
21 22 39 38 
22 23 40 39 
23 24 41 40 
24 25 42 41 
25 26 43 42 
26 27 44 43 
27 28 45 44 
28 29 46 45 
29 30 47 46 
30 31 48 47 
31 32 49 48 
32 33 50 49 
34 35 52 51 
35 36 53 52 
36 37 54 53 
37 38 55 54 
38 39 56 55 
39 40 57 56 
40 41 58 57 
41 42 59 58 
42 43 60 59 
43 44 61 60 
44 45 62 61 
45 46 63 62 
46 47 64 63 
47 48 65 64 
48 49 66 65 
49 50 67 66 
51 52 69 68 
52 53 70 69 
53 54 71 70 
54 55 72 71 
55 56 73 72 
56 57 74 73 
57 58 75 74 
58 59 76 75 
59 60 77 76 
60 61 78 77 
61 62 79 78 
62 63 80 79 
63 64 81 80 
64 65 82 81 
65 66 83 82 
66 67 84 83 
</DataArray>
<DataArray type="Int64" Name="offsets" format="ascii">
4
8
12
16
20
24
28
32
36
40
44
48
52
56
60
64
68
72
76
80
84
88
92
96
100
104
108
112
116
120
124
128
132
136
140
144
148
152
156
160
164
168
172
176
180
184
188
192
196
200
204
208
212
216
220
224
228
232
236
240
244
248
252
256
</DataArray>
<DataArray type="UInt8" Name="types" format="ascii" RangeMin="9" RangeMax="9">
9
9
9
9
9
9
9
9
9
9
9
9
9
9
9
9
9
9
9
9
9
9
9
9
9
9
9
9
9
9
9
9
9
9
9
9
9
9
9
9
9
9
9
9
9
9
9
9
9
9
9
9
9
9
9
9
9
9
9
9
9
9
9
9
</DataArray>
</Cells>
</Piece>
</UnstructuredGrid>
</VTKFile>
