<?xml version="1.0"?>
<VTKFile type="UnstructuredGrid" version="0.1" byte_order="LittleEndian" compressor="vtkZLibDataCompressor">
<UnstructuredGrid>
<Piece NumberOfPoints="43" NumberOfCells="8">
<PointData>
<DataArray type="Float64" Name="displacement" NumberOfComponents="3" format="ascii" >
0.0 0.0  0.
0.03685049952705037 0.04868152473060675  0.
0.05791566806875936 0.18254222555712715  0.
0.04996224592533244 0.3897317287037211  0.
0.00664751144637664 0.6592055462918938  0.
-0.07406191794453036 0.9771648373663765  0.
-0.1910203456929402 1.3341245060431153  0.
-0.3425849320885598 1.7199120514566975  0.
-0.5252897417092554 2.128723100677346  0.
-0.7356681636733889 2.5537694263994535  0.
-0.9694544240867977 2.9915388022269767  0.
-1.2228966629266325 3.4374985356861685  0.
-1.4917154093747298 3.8896769438447967  0.
-1.7723187293206961 4.344839528294148  0.
-2.060527454000136 4.801816585120244  0.
-2.352986823164089 5.258317388197954  0.
-2.6456963973701972 5.713244195961068  0.
0.0 0.0  0.
-0.02074510448709483 0.16527579639126133  0.
-0.13131937688788634 0.6146314548624122  0.
-0.367874690575694 1.2579447461862376  0.
-0.7263712018794767 2.0248924079184514  0.
-1.1849322631556378 2.8664183555056595  0.
-1.7151636942580695 3.7504944982891235  0.
-2.2875474987810382 4.656028189995151  0.
-2.873064086428834 5.567466398863522  0.
0.0 0.0  0.
-0.04543374117016868 0.04140758240926866  0.
-0.100927543895143 0.1553482455328325  0.
-0.1745063977561595 0.33596956682673507  0.
-0.2719729169645 0.5730411891710578  0.
-0.39554397901498145 0.8598150602357553  0.
-0.5470569384502837 1.1841602392718877  0.
-0.7255143860138178 1.5410096868101928  0.
-0.929373623683356 1.9223585633387248  0.
-1.1556832813046065 2.324621086053073  0.
-1.4017658294425956 2.742057071302095  0.
-1.6640310559650326 3.1724083922601767  0.
-1.939399400722885 3.611733945169025  0.
-2.2240560967197256 4.0586106369963515  0.
-2.514843921507829 4.5101682924032795  0.
-2.807808364553593 4.965581825479169  0.
-3.1000204665129636 5.4222473244698115  0.
</DataArray>
<DataArray type="Float64" Name="sigma_xx" NumberOfComponents="1" format="ascii" >
-0.08770509597682816 
-0.08770509597682816 
-0.04932938512065791 
-0.010953674264487666 
0.02446438579504121 
0.05988244585457009 
0.07872073079752243 
0.09755901574047475 
0.11005433666661868 
0.12254965759276262 
0.12944862109122943 
0.13634758458969623 
0.13944332804545598 
0.14253907150121573 
0.1457267755995437 
0.14891447969787167 
0.14891447969787167 
-0.08770509597682816 
-0.04932938512065791 
0.02446438579504121 
0.07872073079752243 
0.11005433666661868 
0.12944862109122943 
0.13944332804545598 
0.1457267755995437 
0.14891447969787167 
-0.08770509597682816 
-0.08770509597682816 
-0.04932938512065791 
-0.010953674264487666 
0.02446438579504121 
0.05988244585457009 
0.07872073079752243 
0.09755901574047475 
0.11005433666661868 
0.12254965759276262 
0.12944862109122943 
0.13634758458969623 
0.13944332804545598 
0.14253907150121573 
0.1457267755995437 
0.14891447969787167 
0.14891447969787167 
</DataArray>
<DataArray type="Float64" Name="sigma_yy" NumberOfComponents="1" format="ascii" >
-0.1245339501488607 
-0.1245339501488607 
-0.13509441275136097 
-0.14565487535386126 
-0.11211689328991567 
-0.07857891122597008 
-0.06333444592667159 
-0.048089980627373116 
-0.03556942537167755 
-0.023048870115981987 
-0.016288784316706925 
-0.009528698517431867 
-0.006599546528892681 
-0.0036703945403534946 
0.007892125724358458 
0.019454645989070412 
0.019454645989070412 
-0.1245339501488607 
-0.13509441275136097 
-0.11211689328991567 
-0.06333444592667159 
-0.03556942537167755 
-0.016288784316706925 
-0.006599546528892681 
0.007892125724358458 
0.019454645989070412 
-0.1245339501488607 
-0.1245339501488607 
-0.13509441275136097 
-0.14565487535386126 
-0.11211689328991567 
-0.07857891122597008 
-0.06333444592667159 
-0.048089980627373116 
-0.03556942537167755 
-0.023048870115981987 
-0.016288784316706925 
-0.009528698517431867 
-0.006599546528892681 
-0.0036703945403534946 
0.007892125724358458 
0.019454645989070412 
0.019454645989070412 
</DataArray>
<DataArray type="Float64" Name="sigma_xy" NumberOfComponents="1" format="ascii" >
0.17395469143498848 
0.17395469143498848 
0.16590271357746933 
0.15785073571995015 
0.1471263633244396 
0.13640199092892905 
0.12520227561272745 
0.11400256029652585 
0.10506738878347688 
0.09613221727042791 
0.08971910230253408 
0.08330598733464023 
0.0795538372127777 
0.07580168709091518 
0.07463441565397491 
0.07346714421703464 
0.07346714421703464 
0.17395469143498848 
0.16590271357746933 
0.1471263633244396 
0.12520227561272745 
0.10506738878347688 
0.08971910230253408 
0.0795538372127777 
0.07463441565397491 
0.07346714421703464 
0.17395469143498848 
0.17395469143498848 
0.16590271357746933 
0.15785073571995015 
0.1471263633244396 
0.13640199092892905 
0.12520227561272745 
0.11400256029652585 
0.10506738878347688 
0.09613221727042791 
0.08971910230253408 
0.08330598733464023 
0.0795538372127777 
0.07580168709091518 
0.07463441565397491 
0.07346714421703464 
0.07346714421703464 
</DataArray>
</PointData>
<CellData>
</CellData>
<Points>
<DataArray type="Float64" Name="Points" NumberOfComponents="3" format="ascii">
0.0 0.0 0.0
0.5 0.0 0.0
1.0 0.0 0.0
1.5 0.0 0.0
2.0 0.0 0.0
2.5 0.0 0.0
3.0 0.0 0.0
3.5 0.0 0.0
4.0 0.0 0.0
4.5 0.0 0.0
5.0 0.0 0.0
5.5 0.0 0.0
6.0 0.0 0.0
6.5 0.0 0.0
7.0 0.0 0.0
7.5 0.0 0.0
8.0 0.0 0.0
0.0 0.25 0.0
1.0 0.25 0.0
2.0 0.25 0.0
3.0 0.25 0.0
4.0 0.25 0.0
5.0 0.25 0.0
6.0 0.25 0.0
7.0 0.25 0.0
8.0 0.25 0.0
0.0 0.5 0.0
0.5 0.5 0.0
1.0 0.5 0.0
1.5 0.5 0.0
2.0 0.5 0.0
2.5 0.5 0.0
3.0 0.5 0.0
3.5 0.5 0.0
4.0 0.5 0.0
4.5 0.5 0.0
5.0 0.5 0.0
5.5 0.5 0.0
6.0 0.5 0.0
6.5 0.5 0.0
7.0 0.5 0.0
7.5 0.5 0.0
8.0 0.5 0.0
</DataArray>
</Points>
<Cells>
<DataArray type="Int64" Name="connectivity" format="ascii">
0 2 28 26 
2 4 30 28 
4 6 32 30 
6 8 34 32 
8 10 36 34 
10 12 38 36 
12 14 40 38 
14 16 42 40 
</DataArray>
<DataArray type="Int64" Name="offsets" format="ascii">
8
16
24
32
40
48
56
64
</DataArray>
<DataArray type="UInt8" Name="types" format="ascii" RangeMin="9" RangeMax="9">
9
9
9
9
9
9
9
9
</DataArray>
</Cells>
</Piece>
</UnstructuredGrid>
</VTKFile>
