<?xml version="1.0"?>
<VTKFile type="UnstructuredGrid" version="0.1" byte_order="LittleEndian" compressor="vtkZLibDataCompressor">
<UnstructuredGrid>
<Piece NumberOfPoints="43" NumberOfCells="8">
<PointData>
<DataArray type="Float64" Name="displacement" NumberOfComponents="3" format="ascii" >
0.0 0.0  0.
0.0318160830270938 0.04048001167823457  0.
0.052446367672505365 0.15322350476423144  0.
0.051710199529868786 0.32983067445783554  0.
0.024243748810963237 0.5625003308768042  0.
-0.03235567120676888 0.8406230634611458  0.
-0.11780475746052435 1.156672545919534  0.
-0.2316942986455922 1.5022640798939029  0.
-0.3717555516422271 1.872267210203245  0.
-0.5357841592664394 2.260544067233577  0.
-0.7204953327770997 2.6635821455600395  0.
-0.9231081356120039 3.0769267305650465  0.
-1.1400270456399 3.49829557296095  0.
-1.3683518503316623 3.924307196767254  0.
-1.6043850913464437 4.3533768595726725  0.
-1.8452998682646247 4.782952098912277  0.
-2.087410418406443 5.211560767176757  0.
0.0 0.0  0.
-0.014951358147120994 0.14018784066972248  0.
-0.09658735015985373 0.5288630191179676  0.
-0.2760589692134562 1.0978695574635275  0.
-0.555085901495744 1.7903406379046352  0.
-0.9198062077203785 2.563015225036183  0.
-1.3487893209846447 3.3848283453672456  0.
-1.8177310750992437 4.233310189985554  0.
-2.3015520387643456 5.090827281114618  0.
0.0 0.0  0.
-0.03794315496341332 0.03526154918372935  0.
-0.08344980441498899 0.13346623635709093  0.
-0.14240696951896042 0.2902231304204697  0.
-0.2195003586498641 0.4981007787017888  0.
-0.31670238882248664 0.7516932469398041  0.
-0.43621503652465715 1.0414567527955523  0.
-0.577541289576833 1.363093222940365  0.
-0.7400676813048551 1.7098407081993543  0.
-0.9215896442289678 2.078334216854466  0.
-1.1203376014687676 2.463340398313464  0.
-1.3333591963844542 2.862475589444907  0.
-1.5583036068158163 3.2718695388324845  0.
-1.79183895438059 3.689811021504312  0.
-2.0313789928259105 4.113287852523914  0.
-2.273368223916809 4.54105389732393  0.
-2.5154207200336263 4.970431919549966  0.
</DataArray>
<DataArray type="Float64" Name="sigma_xx" NumberOfComponents="1" format="ascii" >
-0.0646081133125227 
-0.0646081133125227 
-0.04017848888136016 
-0.015748864450197617 
0.00895428650172203 
0.03365743745364168 
0.04773155397893099 
0.061805670504220304 
0.0718613339998994 
0.0819169974955785 
0.0878731011755052 
0.0938292048554319 
0.09684711409367602 
0.09986502333192014 
0.10258989718661991 
0.10531477104131969 
0.10531477104131969 
-0.0646081133125227 
-0.04017848888136016 
0.00895428650172203 
0.04773155397893099 
0.0718613339998994 
0.0878731011755052 
0.09684711409367602 
0.10258989718661991 
0.10531477104131969 
-0.0646081133125227 
-0.0646081133125227 
-0.04017848888136016 
-0.015748864450197617 
0.00895428650172203 
0.03365743745364168 
0.04773155397893099 
0.061805670504220304 
0.0718613339998994 
0.0819169974955785 
0.0878731011755052 
0.0938292048554319 
0.09684711409367602 
0.09986502333192014 
0.10258989718661991 
0.10531477104131969 
0.10531477104131969 
</DataArray>
<DataArray type="Float64" Name="sigma_yy" NumberOfComponents="1" format="ascii" >
-0.09053294181823314 
-0.09053294181823314 
-0.10027736660733444 
-0.11002179139643573 
-0.08643390573415577 
-0.0628460200718758 
-0.051607006220593665 
-0.04036799236931153 
-0.03044606844356306 
-0.020524144517814594 
-0.014808476486667398 
-0.0090928084555202 
-0.006012722876730554 
-0.0029326372979409077 
0.007547211294592653 
0.018027059887126214 
0.018027059887126214 
-0.09053294181823314 
-0.10027736660733444 
-0.08643390573415577 
-0.051607006220593665 
-0.03044606844356306 
-0.014808476486667398 
-0.006012722876730554 
0.007547211294592653 
0.018027059887126214 
-0.09053294181823314 
-0.09053294181823314 
-0.10027736660733444 
-0.11002179139643573 
-0.08643390573415577 
-0.0628460200718758 
-0.051607006220593665 
-0.04036799236931153 
-0.03044606844356306 
-0.020524144517814594 
-0.014808476486667398 
-0.0090928084555202 
-0.006012722876730554 
-0.0029326372979409077 
0.007547211294592653 
0.018027059887126214 
0.018027059887126214 
</DataArray>
<DataArray type="Float64" Name="sigma_xy" NumberOfComponents="1" format="ascii" >
0.13125566624927934 
0.13125566624927934 
0.1266959364963716 
0.12213620674346384 
0.11597415241889808 
0.10981209809433232 
0.10294416068239871 
0.09607622327046511 
0.09033838789688013 
0.08460055252329515 
0.08028326516363507 
0.075965977803975 
0.07329518892309035 
0.0706244000422057 
0.0696281933950823 
0.06863198674795892 
0.06863198674795892 
0.13125566624927934 
0.1266959364963716 
0.11597415241889808 
0.10294416068239871 
0.09033838789688013 
0.08028326516363507 
0.07329518892309035 
0.0696281933950823 
0.06863198674795892 
0.13125566624927934 
0.13125566624927934 
0.1266959364963716 
0.12213620674346384 
0.11597415241889808 
0.10981209809433232 
0.10294416068239871 
0.09607622327046511 
0.09033838789688013 
0.08460055252329515 
0.08028326516363507 
0.075965977803975 
0.07329518892309035 
0.0706244000422057 
0.0696281933950823 
0.06863198674795892 
0.06863198674795892 
</DataArray>
</PointData>
<CellData>
</CellData>
<Points>
<DataArray type="Float64" Name="Points" NumberOfComponents="3" format="ascii">
0.0 0.0 0.0
0.5 0.0 0.0
1.0 0.0 0.0
1.5 0.0 0.0
2.0 0.0 0.0
2.5 0.0 0.0
3.0 0.0 0.0
3.5 0.0 0.0
4.0 0.0 0.0
4.5 0.0 0.0
5.0 0.0 0.0
5.5 0.0 0.0
6.0 0.0 0.0
6.5 0.0 0.0
7.0 0.0 0.0
7.5 0.0 0.0
8.0 0.0 0.0
0.0 0.25 0.0
1.0 0.25 0.0
2.0 0.25 0.0
3.0 0.25 0.0
4.0 0.25 0.0
5.0 0.25 0.0
6.0 0.25 0.0
7.0 0.25 0.0
8.0 0.25 0.0
0.0 0.5 0.0
0.5 0.5 0.0
1.0 0.5 0.0
1.5 0.5 0.0
2.0 0.5 0.0
2.5 0.5 0.0
3.0 0.5 0.0
3.5 0.5 0.0
4.0 0.5 0.0
4.5 0.5 0.0
5.0 0.5 0.0
5.5 0.5 0.0
6.0 0.5 0.0
6.5 0.5 0.0
7.0 0.5 0.0
7.5 0.5 0.0
8.0 0.5 0.0
</DataArray>
</Points>
<Cells>
<DataArray type="Int64" Name="connectivity" format="ascii">
0 2 28 26 
2 4 30 28 
4 6 32 30 
6 8 34 32 
8 10 36 34 
10 12 38 36 
12 14 40 38 
14 16 42 40 
</DataArray>
<DataArray type="Int64" Name="offsets" format="ascii">
8
16
24
32
40
48
56
64
</DataArray>
<DataArray type="UInt8" Name="types" format="ascii" RangeMin="9" RangeMax="9">
9
9
9
9
9
9
9
9
</DataArray>
</Cells>
</Piece>
</UnstructuredGrid>
</VTKFile>
