<?xml version="1.0"?>
<VTKFile type="UnstructuredGrid" version="0.1" byte_order="LittleEndian" compressor="vtkZLibDataCompressor">
<UnstructuredGrid>
<Piece NumberOfPoints="43" NumberOfCells="8">
<PointData>
<DataArray type="Float64" Name="displacement" NumberOfComponents="3" format="ascii" >
0.0 0.0  0.
0.01512102354199454 0.01732038770338245  0.
0.028060557747346334 0.06684157751125873  0.
0.03616425773274618 0.14642944600815072  0.
0.03791965055654787 0.25423075023171576  0.
0.032209795786927994 0.38702089712508897  0.
0.019041743636138864 0.5422598800642023  0.
-0.002196970593524082 0.717055991912442  0.
-0.03108809933005554 0.9092364027662966  0.
-0.06766766300751767 1.1161248202342333  0.
-0.11105313473375233 1.3357028841696736  0.
-0.160946699477528 1.5655446393434989  0.
-0.21618756560913316 1.8038324368687217  0.
-0.27626056697604157 2.0483332340055167  0.
-0.3398190274167136 2.297343984947039  0.
-0.4062395687641148 2.548870925652291  0.
-0.47404057871491456 2.801141817023566  0.
0.0 0.0  0.
-0.003061048246211996 0.06332029420632478  0.
-0.020630903520238345 0.24628562789626104  0.
-0.06159196434341939 0.5279804640739325  0.
-0.1290637026106791 0.8885240462974241  0.
-0.22191200434877512 1.3092397225415209  0.
-0.3358424236458272 1.7729789526335105  0.
-0.4644593830447472 2.263914727430815  0.
-0.600108613195316 2.767146484316375  0.
0.0 0.0  0.
-0.01635065729845179 0.016262297377299072  0.
-0.03440852749594982 0.06272948871756917  0.
-0.055131805988446546 0.13794593278838943  0.
-0.07967539766962503 0.24000773028039168  0.
-0.10847218905599429 0.3667833036959464  0.
-0.1427306257483384 0.5152227056795328  0.
-0.18228238985071285 0.6834541928797337  0.
-0.2275315815611481 0.8689220098462398  0.
-0.27782326489082526 1.069777059956864  0.
-0.3331738742446906 1.2835800927913796  0.
-0.3925946433143634 1.508609872699169  0.
-0.45578045167253484 1.742637171147168  0.
-0.5214916462279553 1.9840264429315968  0.
-0.5892285124204352 2.2306892554916655  0.
-0.6576098555791682 2.481031201380537  0.
-0.7261943115171945 2.733199285585746  0.
</DataArray>
<DataArray type="Float64" Name="sigma_xx" NumberOfComponents="1" format="ascii" >
-0.0137751454400648 
-0.0137751454400648 
-0.010189947774534252 
-0.006604750109003706 
-0.0020780628059025646 
0.0024486244971985765 
0.005407622215446514 
0.00836661993369445 
0.010870112279883111 
0.01337360462607177 
0.01509545868225812 
0.01681731273844447 
0.01794026167838056 
0.019063210618316652 
0.019963113029131497 
0.020863015439946342 
0.020863015439946342 
-0.0137751454400648 
-0.010189947774534252 
-0.0020780628059025646 
0.005407622215446514 
0.010870112279883111 
0.01509545868225812 
0.01794026167838056 
0.019963113029131497 
0.020863015439946342 
-0.0137751454400648 
-0.0137751454400648 
-0.010189947774534252 
-0.006604750109003706 
-0.0020780628059025646 
0.0024486244971985765 
0.005407622215446514 
0.00836661993369445 
0.010870112279883111 
0.01337360462607177 
0.01509545868225812 
0.01681731273844447 
0.01794026167838056 
0.019063210618316652 
0.019963113029131497 
0.020863015439946342 
0.020863015439946342 
</DataArray>
<DataArray type="Float64" Name="sigma_yy" NumberOfComponents="1" format="ascii" >
-0.01889088126320655 
-0.01889088126320655 
-0.02186902232340037 
-0.024847163383594193 
-0.02038435698499082 
-0.01592155058638745 
-0.013618511916893191 
-0.011315473247398934 
-0.008889746994386619 
-0.006464020741374303 
-0.004857515368671477 
-0.0032510099959686513 
-0.0017852323829489077 
-0.0003194547699291641 
0.004902494259878161 
0.010124443289685486 
0.010124443289685486 
-0.01889088126320655 
-0.02186902232340037 
-0.02038435698499082 
-0.013618511916893191 
-0.008889746994386619 
-0.004857515368671477 
-0.0017852323829489077 
0.004902494259878161 
0.010124443289685486 
-0.01889088126320655 
-0.01889088126320655 
-0.02186902232340037 
-0.024847163383594193 
-0.02038435698499082 
-0.01592155058638745 
-0.013618511916893191 
-0.011315473247398934 
-0.008889746994386619 
-0.006464020741374303 
-0.004857515368671477 
-0.0032510099959686513 
-0.0017852323829489077 
-0.0003194547699291641 
0.004902494259878161 
0.010124443289685486 
0.010124443289685486 
</DataArray>
<DataArray type="Float64" Name="sigma_xy" NumberOfComponents="1" format="ascii" >
0.04441722350097999 
0.04441722350097999 
0.04395705376056782 
0.04349688402015565 
0.04305352587642809 
0.042610167732700543 
0.04199108577940788 
0.04137200382611522 
0.04080829250510207 
0.040244581184088905 
0.03977142385487175 
0.039298266525654595 
0.03896913280787917 
0.03863999909010374 
0.03848529683114925 
0.03833059457219476 
0.03833059457219476 
0.04441722350097999 
0.04395705376056782 
0.04305352587642809 
0.04199108577940788 
0.04080829250510207 
0.03977142385487175 
0.03896913280787917 
0.03848529683114925 
0.03833059457219476 
0.04441722350097999 
0.04441722350097999 
0.04395705376056782 
0.04349688402015565 
0.04305352587642809 
0.042610167732700543 
0.04199108577940788 
0.04137200382611522 
0.04080829250510207 
0.040244581184088905 
0.03977142385487175 
0.039298266525654595 
0.03896913280787917 
0.03863999909010374 
0.03848529683114925 
0.03833059457219476 
0.03833059457219476 
</DataArray>
</PointData>
<CellData>
</CellData>
<Points>
<DataArray type="Float64" Name="Points" NumberOfComponents="3" format="ascii">
0.0 0.0 0.0
0.5 0.0 0.0
1.0 0.0 0.0
1.5 0.0 0.0
2.0 0.0 0.0
2.5 0.0 0.0
3.0 0.0 0.0
3.5 0.0 0.0
4.0 0.0 0.0
4.5 0.0 0.0
5.0 0.0 0.0
5.5 0.0 0.0
6.0 0.0 0.0
6.5 0.0 0.0
7.0 0.0 0.0
7.5 0.0 0.0
8.0 0.0 0.0
0.0 0.25 0.0
1.0 0.25 0.0
2.0 0.25 0.0
3.0 0.25 0.0
4.0 0.25 0.0
5.0 0.25 0.0
6.0 0.25 0.0
7.0 0.25 0.0
8.0 0.25 0.0
0.0 0.5 0.0
0.5 0.5 0.0
1.0 0.5 0.0
1.5 0.5 0.0
2.0 0.5 0.0
2.5 0.5 0.0
3.0 0.5 0.0
3.5 0.5 0.0
4.0 0.5 0.0
4.5 0.5 0.0
5.0 0.5 0.0
5.5 0.5 0.0
6.0 0.5 0.0
6.5 0.5 0.0
7.0 0.5 0.0
7.5 0.5 0.0
8.0 0.5 0.0
</DataArray>
</Points>
<Cells>
<DataArray type="Int64" Name="connectivity" format="ascii">
0 2 28 26 
2 4 30 28 
4 6 32 30 
6 8 34 32 
8 10 36 34 
10 12 38 36 
12 14 40 38 
14 16 42 40 
</DataArray>
<DataArray type="Int64" Name="offsets" format="ascii">
8
16
24
32
40
48
56
64
</DataArray>
<DataArray type="UInt8" Name="types" format="ascii" RangeMin="9" RangeMax="9">
9
9
9
9
9
9
9
9
</DataArray>
</Cells>
</Piece>
</UnstructuredGrid>
</VTKFile>
