<?xml version="1.0"?>
<VTKFile type="UnstructuredGrid" version="0.1" byte_order="LittleEndian" compressor="vtkZLibDataCompressor">
<UnstructuredGrid>
<Piece NumberOfPoints="43" NumberOfCells="8">
<PointData>
<DataArray type="Float64" Name="displacement" NumberOfComponents="3" format="ascii" >
0.0 0.0  0.
0.05067815656022199 0.07569158556682808  0.
0.06659175166285378 0.27381101091443405  0.
0.02571616550454586 0.5669240956721505  0.
-0.07782884572263662 0.9309755931090327  0.
-0.24084429610166197 1.3421831313166945  0.
-0.4566183704114867 1.786388340017424  0.
-0.7176669727496842 2.250183326947946  0.
-1.0161824826856798 2.727889178407036  0.
-1.344933377522834 3.212913287082395  0.
-1.6973303699175109 3.7031256559646994  0.
-2.0676600132243035 4.1950749917479  0.
-2.450647068623856 4.688233749033434  0.
-2.8417377173787717 5.180359359514423  0.
-3.2363168880394704 5.671500143155827  0.
-3.6303546572209013 6.160328217542217  0.
-4.019814715813115 6.646437380184303  0.
0.0 0.0  0.
-0.043806297992371304 0.24092665738573552  0.
-0.2571194812125098 0.8502632791570675  0.
-0.6713619615389612 1.6596527923681568  0.
-1.247969994101684 2.5674326374447727  0.
-1.9370444852546662 3.5206573572354256  0.
-2.69381294959865 4.493825936994048  0.
-3.4805041563045065 5.4742908616751516  0.
-4.2632695501606035 6.453308906354224  0.
0.0 0.0  0.
-0.06947935172137579 0.060068287119932735  0.
-0.15733841793021902 0.21812878500681296  0.
-0.2785600838914395 0.46247322887103326  0.
-0.44069081488295614 0.7720655845287906  0.
-0.6448230045898689 1.1360240579966043  0.
-0.8891725356929634 1.5348433599593148  0.
-1.1699517164682256 1.962081515369816  0.
-1.4818805740131094 2.4076730088325786  0.
-1.8196185348391998 2.868408464009608  0.
-2.1780194355164095 3.3385100528263933  0.
-2.5521480167750665 3.8166725085343836  0.
-2.9375226784557222 4.299644245878313  0.
-3.3296932264003414 4.786958064281396  0.
-3.724663382798398 5.276617648456973  0.
-4.11805846671058 5.768991768382058  0.
-4.50581604988789 6.2617983104444885  0.
</DataArray>
<DataArray type="Float64" Name="sigma_xx" NumberOfComponents="1" format="ascii" >
-0.1687056570044002 
-0.1687056570044002 
-0.05441490729655138 
0.05987584241129745 
0.13781770843677443 
0.21575957446225144 
0.2475286410009942 
0.27929770753973693 
0.29567261065664496 
0.31204751377355294 
0.3190485627082348 
0.3260496116429167 
0.3274412713020721 
0.3288329309612275 
0.3331963856664931 
0.3375598403717587 
0.3375598403717587 
-0.1687056570044002 
-0.05441490729655138 
0.13781770843677443 
0.2475286410009942 
0.29567261065664496 
0.3190485627082348 
0.3274412713020721 
0.3331963856664931 
0.3375598403717587 
-0.1687056570044002 
-0.1687056570044002 
-0.05441490729655138 
0.05987584241129745 
0.13781770843677443 
0.21575957446225144 
0.2475286410009942 
0.27929770753973693 
0.29567261065664496 
0.31204751377355294 
0.3190485627082348 
0.3260496116429167 
0.3274412713020721 
0.3288329309612275 
0.3331963856664931 
0.3375598403717587 
0.3375598403717587 
</DataArray>
<DataArray type="Float64" Name="sigma_yy" NumberOfComponents="1" format="ascii" >
-0.2554874330667742 
-0.2554874330667742 
-0.25722380790304966 
-0.2589601827393252 
-0.18542062177282603 
-0.11188106080632686 
-0.08455462408127729 
-0.0572281873562277 
-0.03935681799194716 
-0.021485448627666617 
-0.01384814869957356 
-0.006210848771480504 
-0.006126297494196255 
-0.006041746216912006 
0.008253944611072086 
0.02254963543905618 
0.02254963543905618 
-0.2554874330667742 
-0.25722380790304966 
-0.18542062177282603 
-0.08455462408127729 
-0.03935681799194716 
-0.01384814869957356 
-0.006126297494196255 
0.008253944611072086 
0.02254963543905618 
-0.2554874330667742 
-0.2554874330667742 
-0.25722380790304966 
-0.2589601827393252 
-0.18542062177282603 
-0.11188106080632686 
-0.08455462408127729 
-0.0572281873562277 
-0.03935681799194716 
-0.021485448627666617 
-0.01384814869957356 
-0.006210848771480504 
-0.006126297494196255 
-0.006041746216912006 
0.008253944611072086 
0.02254963543905618 
0.02254963543905618 
</DataArray>
<DataArray type="Float64" Name="sigma_xy" NumberOfComponents="1" format="ascii" >
0.3621330529623226 
0.3621330529623226 
0.32988908355439134 
0.29764511414646005 
0.2602870487952388 
0.2229289834440175 
0.19136411390696167 
0.15979924436990586 
0.13849519896505003 
0.1171911535601942 
0.10436910010680317 
0.09154704665341215 
0.08589930735822131 
0.08025156806303047 
0.08106067277494587 
0.08186977748686128 
0.08186977748686128 
0.3621330529623226 
0.32988908355439134 
0.2602870487952388 
0.19136411390696167 
0.13849519896505003 
0.10436910010680317 
0.08589930735822131 
0.08106067277494587 
0.08186977748686128 
0.3621330529623226 
0.3621330529623226 
0.32988908355439134 
0.29764511414646005 
0.2602870487952388 
0.2229289834440175 
0.19136411390696167 
0.15979924436990586 
0.13849519896505003 
0.1171911535601942 
0.10436910010680317 
0.09154704665341215 
0.08589930735822131 
0.08025156806303047 
0.08106067277494587 
0.08186977748686128 
0.08186977748686128 
</DataArray>
</PointData>
<CellData>
</CellData>
<Points>
<DataArray type="Float64" Name="Points" NumberOfComponents="3" format="ascii">
0.0 0.0 0.0
0.5 0.0 0.0
1.0 0.0 0.0
1.5 0.0 0.0
2.0 0.0 0.0
2.5 0.0 0.0
3.0 0.0 0.0
3.5 0.0 0.0
4.0 0.0 0.0
4.5 0.0 0.0
5.0 0.0 0.0
5.5 0.0 0.0
6.0 0.0 0.0
6.5 0.0 0.0
7.0 0.0 0.0
7.5 0.0 0.0
8.0 0.0 0.0
0.0 0.25 0.0
1.0 0.25 0.0
2.0 0.25 0.0
3.0 0.25 0.0
4.0 0.25 0.0
5.0 0.25 0.0
6.0 0.25 0.0
7.0 0.25 0.0
8.0 0.25 0.0
0.0 0.5 0.0
0.5 0.5 0.0
1.0 0.5 0.0
1.5 0.5 0.0
2.0 0.5 0.0
2.5 0.5 0.0
3.0 0.5 0.0
3.5 0.5 0.0
4.0 0.5 0.0
4.5 0.5 0.0
5.0 0.5 0.0
5.5 0.5 0.0
6.0 0.5 0.0
6.5 0.5 0.0
7.0 0.5 0.0
7.5 0.5 0.0
8.0 0.5 0.0
</DataArray>
</Points>
<Cells>
<DataArray type="Int64" Name="connectivity" format="ascii">
0 2 28 26 
2 4 30 28 
4 6 32 30 
6 8 34 32 
8 10 36 34 
10 12 38 36 
12 14 40 38 
14 16 42 40 
</DataArray>
<DataArray type="Int64" Name="offsets" format="ascii">
8
16
24
32
40
48
56
64
</DataArray>
<DataArray type="UInt8" Name="types" format="ascii" RangeMin="9" RangeMax="9">
9
9
9
9
9
9
9
9
</DataArray>
</Cells>
</Piece>
</UnstructuredGrid>
</VTKFile>
