<?xml version="1.0"?>
<VTKFile type="UnstructuredGrid" version="0.1" byte_order="LittleEndian" compressor="vtkZLibDataCompressor">
<UnstructuredGrid>
<Piece NumberOfPoints="43" NumberOfCells="8">
<PointData>
<DataArray type="Float64" Name="displacement" NumberOfComponents="3" format="ascii" >
0.0 0.0  0.
0.008237323022298314 0.009098683569003974  0.
0.01584851981673819 0.03523714184651351  0.
0.021871951431144412 0.07747632686263549  0.
0.025817141501912284 0.135000481217479  0.
0.027239435788615433 0.2063409225588046  0.
0.026277555446407138 0.2902341877346412  0.
0.02259500714950228 0.3853463259195395  0.
0.016397882364813637 0.490555024328917  0.
0.007527949151338034 0.6045464995073041  0.
-0.0036488555134097625 0.7262006775174193  0.
-0.01718402305813179 0.8542565622760934  0.
-0.03261800670720715 0.9876332892196039  0.
-0.049923669992637316 1.1251062347482585  0.
-0.06857517083696513 1.2656029618565985  0.
-0.08849835570049669 1.4079832898615154  0.
-0.10911384680280777 1.5510903819065487  0.
0.0 0.0  0.
-0.0008758747985572569 0.03385977769348987  0.
-0.005950772135001809 0.13247001741036812  0.
-0.017918080774918986 0.28582839061002396  0.
-0.037864980058036624 0.4842338374937655  0.
-0.06562055081344637 0.7181256929358558  0.
-0.10001014315043232 0.9781977470607663  0.
-0.1391443235685909 1.2553635440237059  0.
-0.1806650136378825 1.540696418929389  0.
0.0 0.0  0.
-0.008587849199168886 0.008796485133192889  0.
-0.017664874152627637 0.03405690303890679  0.
-0.02732079939002762 0.07502829954257922  0.
-0.03786393841673431 0.1308719613678076  0.
-0.04933315198096709 0.20043202901604967  0.
-0.06226547029202521 0.2822909247750623  0.
-0.07649751359915584 0.375416180449112  0.
-0.0922795183501079 0.47857095677821015  0.
-0.10930548072517207 0.5906947072715376  0.
-0.12771884555020327 0.7105416250680311  0.
-0.14710417688757674 0.8370724729412696  0.
-0.16749552032947956 0.9690846945908459  0.
-0.18838836416174237 1.1055414197546847  0.
-0.20975172388887015 1.245264981239621  0.
-0.23104223579446642 1.387208941861081  0.
-0.25225576394451876 1.5303327556143778  0.
</DataArray>
<DataArray type="Float64" Name="sigma_xx" NumberOfComponents="1" format="ascii" >
-0.003969614215941997 
-0.003969614215941997 
-0.003022006613431031 
-0.0020743990109200654 
-0.000816922175507347 
0.00044055465990537146 
0.0012824195513834117 
0.002124284442861452 
0.002862814763834308 
0.0036013450848071636 
0.0041217066975401855 
0.004642068310273207 
0.00502146290165874 
0.0054008574930442714 
0.005716184729697717 
0.006031511966351163 
0.006031511966351163 
-0.003969614215941997 
-0.003022006613431031 
-0.000816922175507347 
0.0012824195513834117 
0.002862814763834308 
0.0041217066975401855 
0.00502146290165874 
0.005716184729697717 
0.006031511966351163 
-0.003969614215941997 
-0.003969614215941997 
-0.003022006613431031 
-0.0020743990109200654 
-0.000816922175507347 
0.00044055465990537146 
0.0012824195513834117 
0.002124284442861452 
0.002862814763834308 
0.0036013450848071636 
0.0041217066975401855 
0.004642068310273207 
0.00502146290165874 
0.0054008574930442714 
0.005716184729697717 
0.006031511966351163 
0.006031511966351163 
</DataArray>
<DataArray type="Float64" Name="sigma_yy" NumberOfComponents="1" format="ascii" >
-0.005425983413830178 
-0.005425983413830178 
-0.00633499870372921 
-0.007244013993628241 
-0.005993220546576311 
-0.0047424270995243805 
-0.004090745675201489 
-0.0034390642508785978 
-0.00272165430586528 
-0.0020042443608519625 
-0.0015149292497323224 
-0.0010256141386126823 
-0.00039238504069521974 
0.00024084405722224283 
0.0029692306949673005 
0.005697617332712358 
0.005697617332712358 
-0.005425983413830178 
-0.00633499870372921 
-0.005993220546576311 
-0.004090745675201489 
-0.00272165430586528 
-0.0015149292497323224 
-0.00039238504069521974 
0.0029692306949673005 
0.005697617332712358 
-0.005425983413830178 
-0.005425983413830178 
-0.00633499870372921 
-0.007244013993628241 
-0.005993220546576311 
-0.0047424270995243805 
-0.004090745675201489 
-0.0034390642508785978 
-0.00272165430586528 
-0.0020042443608519625 
-0.0015149292497323224 
-0.0010256141386126823 
-0.00039238504069521974 
0.00024084405722224283 
0.0029692306949673005 
0.005697617332712358 
0.005697617332712358 
</DataArray>
<DataArray type="Float64" Name="sigma_xy" NumberOfComponents="1" format="ascii" >
0.022284924344813575 
0.022284924344813575 
0.02215419864963175 
0.02202347295444993 
0.021975181093074496 
0.021926889231699057 
0.021829488337913115 
0.021732087444127173 
0.021646462246689972 
0.02156083704925277 
0.02148634915082898 
0.021411861252405188 
0.02135814909205372 
0.02130443693170225 
0.021280252189274408 
0.021256067446846563 
0.021256067446846563 
0.022284924344813575 
0.02215419864963175 
0.021975181093074496 
0.021829488337913115 
0.021646462246689972 
0.02148634915082898 
0.02135814909205372 
0.021280252189274408 
0.021256067446846563 
0.022284924344813575 
0.022284924344813575 
0.02215419864963175 
0.02202347295444993 
0.021975181093074496 
0.021926889231699057 
0.021829488337913115 
0.021732087444127173 
0.021646462246689972 
0.02156083704925277 
0.02148634915082898 
0.021411861252405188 
0.02135814909205372 
0.02130443693170225 
0.021280252189274408 
0.021256067446846563 
0.021256067446846563 
</DataArray>
</PointData>
<CellData>
</CellData>
<Points>
<DataArray type="Float64" Name="Points" NumberOfComponents="3" format="ascii">
0.0 0.0 0.0
0.5 0.0 0.0
1.0 0.0 0.0
1.5 0.0 0.0
2.0 0.0 0.0
2.5 0.0 0.0
3.0 0.0 0.0
3.5 0.0 0.0
4.0 0.0 0.0
4.5 0.0 0.0
5.0 0.0 0.0
5.5 0.0 0.0
6.0 0.0 0.0
6.5 0.0 0.0
7.0 0.0 0.0
7.5 0.0 0.0
8.0 0.0 0.0
0.0 0.25 0.0
1.0 0.25 0.0
2.0 0.25 0.0
3.0 0.25 0.0
4.0 0.25 0.0
5.0 0.25 0.0
6.0 0.25 0.0
7.0 0.25 0.0
8.0 0.25 0.0
0.0 0.5 0.0
0.5 0.5 0.0
1.0 0.5 0.0
1.5 0.5 0.0
2.0 0.5 0.0
2.5 0.5 0.0
3.0 0.5 0.0
3.5 0.5 0.0
4.0 0.5 0.0
4.5 0.5 0.0
5.0 0.5 0.0
5.5 0.5 0.0
6.0 0.5 0.0
6.5 0.5 0.0
7.0 0.5 0.0
7.5 0.5 0.0
8.0 0.5 0.0
</DataArray>
</Points>
<Cells>
<DataArray type="Int64" Name="connectivity" format="ascii">
0 2 28 26 
2 4 30 28 
4 6 32 30 
6 8 34 32 
8 10 36 34 
10 12 38 36 
12 14 40 38 
14 16 42 40 
</DataArray>
<DataArray type="Int64" Name="offsets" format="ascii">
8
16
24
32
40
48
56
64
</DataArray>
<DataArray type="UInt8" Name="types" format="ascii" RangeMin="9" RangeMax="9">
9
9
9
9
9
9
9
9
</DataArray>
</Cells>
</Piece>
</UnstructuredGrid>
</VTKFile>
