<?xml version="1.0"?>
<VTKFile type="UnstructuredGrid" version="0.1" byte_order="LittleEndian" compressor="vtkZLibDataCompressor">
<UnstructuredGrid>
<Piece NumberOfPoints="43" NumberOfCells="8">
<PointData>
<DataArray type="Float64" Name="displacement" NumberOfComponents="3" format="ascii" >
0.0 0.0  0.
0.049541365878226086 0.07315375348874062  0.
0.06630521786740531 0.2655767888280395  0.
0.028942766459638312 0.5515345795295248  0.
-0.06873135909867212 0.9082571101559751  0.
-0.22424117453388953 1.3127851649671962  0.
-0.43151024970558466 1.7512316196832  0.
-0.6836372027296106 2.210307206162059  0.
-0.9731831638125725 2.684189936839434  0.
-1.2931937697070213 3.1661596793901157  0.
-1.6372171210799404 3.653912802754882  0.
-1.9996354259191726 4.143860820788668  0.
-2.3751976938317862 4.635350718875562  0.
-2.7593739888324853 5.126053374059903  0.
-3.1475465455022325 5.615934096951095  0.
-3.5357109202410326 6.103595906795106  0.
-3.919812395714591 6.588612374059296  0.
0.0 0.0  0.
-0.04142961419594198 0.23423202585717373  0.
-0.24496334067636732 0.8308175885845442  0.
-0.6438293706465296 1.6286588702997615  0.
-1.2032823591949806 2.527983425667025  0.
-1.8757762078291418 3.4753975098720367  0.
-2.617526789825771 4.44446558096501  0.
-3.391055607309303 5.421754804319924  0.
-4.162663967980726 6.398057033285188  0.
0.0 0.0  0.
-0.0672575600324363 0.05840257014841751  0.
-0.15213776681292326 0.21275369535078287  0.
-0.2689981883044401 0.45193524062174834  0.
-0.4253598901452076 0.7559744506964807  0.
-0.6225335477700239 1.1143286868969402  0.
-0.859186333662225 1.5080684833009257  0.
-1.1318278299917184 1.9307997096286116  0.
-1.4355192273278228 2.3725263236773744  0.
-1.765110927473838 2.8299533731862025  0.
-2.115627176553992 3.2972357257508875  0.
-2.482206506397251 3.7729698653017785  0.
-2.860435251210192 4.253815789493321  0.
-3.2458789429815913 4.739233896940129  0.
-3.6345728276005245 5.227147884697618  0.
-4.022156824381464 5.717836171484482  0.
-4.404657470899566 6.2090035719226675  0.
</DataArray>
<DataArray type="Float64" Name="sigma_xx" NumberOfComponents="1" format="ascii" >
-0.16114261982737182 
-0.16114261982737182 
-0.05597354048144065 
0.04919553886449051 
0.12295325696828723 
0.19671097507208393 
0.22758573073362875 
0.2584604863951736 
0.27474661726938954 
0.2910327481436055 
0.2981693857330778 
0.30530602332255 
0.30693214174830374 
0.3085582601740574 
0.31280904110043384 
0.3170598220268103 
0.3170598220268103 
-0.16114261982737182 
-0.05597354048144065 
0.12295325696828723 
0.22758573073362875 
0.27474661726938954 
0.2981693857330778 
0.30693214174830374 
0.31280904110043384 
0.3170598220268103 
-0.16114261982737182 
-0.16114261982737182 
-0.05597354048144065 
0.04919553886449051 
0.12295325696828723 
0.19671097507208393 
0.22758573073362875 
0.2584604863951736 
0.27474661726938954 
0.2910327481436055 
0.2981693857330778 
0.30530602332255 
0.30693214174830374 
0.3085582601740574 
0.31280904110043384 
0.3170598220268103 
0.3170598220268103 
</DataArray>
<DataArray type="Float64" Name="sigma_yy" NumberOfComponents="1" format="ascii" >
-0.2422487274017666 
-0.2422487274017666 
-0.24561194181977197 
-0.24897515623777738 
-0.1794688999236656 
-0.1099626436095538 
-0.08358574989915335 
-0.05720885618875292 
-0.039612792676454414 
-0.022016729164155903 
-0.014328478724469445 
-0.006640228284782987 
-0.006189701897901849 
-0.005739175511020712 
0.008258013308264813 
0.022255202127550337 
0.022255202127550337 
-0.2422487274017666 
-0.24561194181977197 
-0.1794688999236656 
-0.08358574989915335 
-0.039612792676454414 
-0.014328478724469445 
-0.006189701897901849 
0.008258013308264813 
0.022255202127550337 
-0.2422487274017666 
-0.2422487274017666 
-0.24561194181977197 
-0.24897515623777738 
-0.1794688999236656 
-0.1099626436095538 
-0.08358574989915335 
-0.05720885618875292 
-0.039612792676454414 
-0.022016729164155903 
-0.014328478724469445 
-0.006640228284782987 
-0.006189701897901849 
-0.005739175511020712 
0.008258013308264813 
0.022255202127550337 
0.022255202127550337 
</DataArray>
<DataArray type="Float64" Name="sigma_xy" NumberOfComponents="1" format="ascii" >
0.34150573939670054 
0.34150573939670054 
0.31252265497963366 
0.2835395705625668 
0.24942389958894828 
0.21530822861532975 
0.18591603368663845 
0.15652383875794712 
0.13636548043753718 
0.11620712211712726 
0.10385566568443513 
0.09150420925174299 
0.08585791610337504 
0.0802116229550071 
0.08060937295675638 
0.08100712295850565 
0.08100712295850565 
0.34150573939670054 
0.31252265497963366 
0.24942389958894828 
0.18591603368663845 
0.13636548043753718 
0.10385566568443513 
0.08585791610337504 
0.08060937295675638 
0.08100712295850565 
0.34150573939670054 
0.34150573939670054 
0.31252265497963366 
0.2835395705625668 
0.24942389958894828 
0.21530822861532975 
0.18591603368663845 
0.15652383875794712 
0.13636548043753718 
0.11620712211712726 
0.10385566568443513 
0.09150420925174299 
0.08585791610337504 
0.0802116229550071 
0.08060937295675638 
0.08100712295850565 
0.08100712295850565 
</DataArray>
</PointData>
<CellData>
</CellData>
<Points>
<DataArray type="Float64" Name="Points" NumberOfComponents="3" format="ascii">
0.0 0.0 0.0
0.5 0.0 0.0
1.0 0.0 0.0
1.5 0.0 0.0
2.0 0.0 0.0
2.5 0.0 0.0
3.0 0.0 0.0
3.5 0.0 0.0
4.0 0.0 0.0
4.5 0.0 0.0
5.0 0.0 0.0
5.5 0.0 0.0
6.0 0.0 0.0
6.5 0.0 0.0
7.0 0.0 0.0
7.5 0.0 0.0
8.0 0.0 0.0
0.0 0.25 0.0
1.0 0.25 0.0
2.0 0.25 0.0
3.0 0.25 0.0
4.0 0.25 0.0
5.0 0.25 0.0
6.0 0.25 0.0
7.0 0.25 0.0
8.0 0.25 0.0
0.0 0.5 0.0
0.5 0.5 0.0
1.0 0.5 0.0
1.5 0.5 0.0
2.0 0.5 0.0
2.5 0.5 0.0
3.0 0.5 0.0
3.5 0.5 0.0
4.0 0.5 0.0
4.5 0.5 0.0
5.0 0.5 0.0
5.5 0.5 0.0
6.0 0.5 0.0
6.5 0.5 0.0
7.0 0.5 0.0
7.5 0.5 0.0
8.0 0.5 0.0
</DataArray>
</Points>
<Cells>
<DataArray type="Int64" Name="connectivity" format="ascii">
0 2 28 26 
2 4 30 28 
4 6 32 30 
6 8 34 32 
8 10 36 34 
10 12 38 36 
12 14 40 38 
14 16 42 40 
</DataArray>
<DataArray type="Int64" Name="offsets" format="ascii">
8
16
24
32
40
48
56
64
</DataArray>
<DataArray type="UInt8" Name="types" format="ascii" RangeMin="9" RangeMax="9">
9
9
9
9
9
9
9
9
</DataArray>
</Cells>
</Piece>
</UnstructuredGrid>
</VTKFile>
