<?xml version="1.0"?>
<VTKFile type="UnstructuredGrid" version="0.1" byte_order="LittleEndian" compressor="vtkZLibDataCompressor">
<UnstructuredGrid>
<Piece NumberOfPoints="43" NumberOfCells="8">
<PointData>
<DataArray type="Float64" Name="displacement" NumberOfComponents="3" format="ascii" >
0.0 0.0  0.
0.045669173214772846 0.06499447040917093  0.
0.06469296754158205 0.23862821984474283  0.
0.03814636501434013 0.5003303960276317  0.
-0.04076703848761036 0.8314348174458266  0.
-0.1716034282915942 1.2118361755400155  0.
-0.350222261536153 1.6287758837630912  0.
-0.5716020957969685 2.0695997498108176  0.
-0.8295819438721581 2.528184426383302  0.
-1.1182293794273512 2.997518595946229  0.
-1.4316535936904002 3.474770529157758  0.
-1.76466443976671 3.9559301974286565  0.
-2.1121732198747383 4.43990802100847  0.
-2.4698023802680975 4.924068925261721  0.
-2.8329658404588174 5.408060790239005  0.
-3.197772311809766 5.890224086373681  0.
-3.5601120949178258 6.3700058364375085  0.
0.0 0.0  0.
-0.0340523263035458 0.2121550988345457  0.
-0.20611478969132643 0.7647591650873458  0.
-0.5533919973855217 1.52046571347498  0.
-1.0529242268055155 2.387111403416413  0.
-1.6653356470405165 3.3108300992400577  0.
-2.3508175805517837 4.262433883561371  0.
-3.0734123910901783 5.225826534881991  0.
-3.800172957978886 6.190003795203385  0.
0.0 0.0  0.
-0.060063925081698305 0.05293378506733498  0.
-0.13526353943542466 0.19478942219395518  0.
-0.2378954427302665 0.41630759625070124  0.
-0.3752035516887668 0.7009004306058014  0.
-0.5490571614261694 1.0392007280341227  0.
-0.7594538439287236 1.4143123839660656  0.
-1.0038378369614416 1.8201059198131635  0.
-1.2784128103022756 2.2469685816929377  0.
-1.57870634968365 2.691383131044282  0.
-1.9003873088276908 3.147362447744866  0.
-2.2389042564027566 3.6131842779899572  0.
-2.5901446153874828 4.085237683167939  0.
-2.9497733956251397 4.562719725621987  0.
-3.3139770113397082 5.0432819224214205  0.
-3.678456514723948 5.526882200651895  0.
-4.039531172600325 6.0111506497753915  0.
</DataArray>
<DataArray type="Float64" Name="sigma_xx" NumberOfComponents="1" format="ascii" >
-0.1365257926926774 
-0.1365257926926774 
-0.05790952375975915 
0.020706745173159093 
0.08107330085027173 
0.14143985652738436 
0.16891644377934695 
0.19639303103130956 
0.21202737232285368 
0.22766171361439783 
0.23507643133230144 
0.24249114905020508 
0.24480502123029185 
0.24711889341037865 
0.25102544122557785 
0.2549319890407771 
0.2549319890407771 
-0.1365257926926774 
-0.05790952375975915 
0.08107330085027173 
0.16891644377934695 
0.21202737232285368 
0.23507643133230144 
0.24480502123029185 
0.25102544122557785 
0.2549319890407771 
-0.1365257926926774 
-0.1365257926926774 
-0.05790952375975915 
0.020706745173159093 
0.08107330085027173 
0.14143985652738436 
0.16891644377934695 
0.19639303103130956 
0.21202737232285368 
0.22766171361439783 
0.23507643133230144 
0.24249114905020508 
0.24480502123029185 
0.24711889341037865 
0.25102544122557785 
0.2549319890407771 
0.2549319890407771 
</DataArray>
<DataArray type="Float64" Name="sigma_yy" NumberOfComponents="1" format="ascii" >
-0.20081935898095815 
-0.20081935898095815 
-0.20829584721895034 
-0.21577233545694252 
-0.15899153070842667 
-0.1022107259599108 
-0.07921558631073644 
-0.05622044666156209 
-0.0398256481752057 
-0.02343084968884931 
-0.015734172804529725 
-0.008037495920210138 
-0.00650996165486537 
-0.0049824273895206035 
0.008179321487760873 
0.02134107036504235 
0.02134107036504235 
-0.20081935898095815 
-0.20829584721895034 
-0.15899153070842667 
-0.07921558631073644 
-0.0398256481752057 
-0.015734172804529725 
-0.00650996165486537 
0.008179321487760873 
0.02134107036504235 
-0.20081935898095815 
-0.20081935898095815 
-0.20829584721895034 
-0.21577233545694252 
-0.15899153070842667 
-0.1022107259599108 
-0.07921558631073644 
-0.05622044666156209 
-0.0398256481752057 
-0.02343084968884931 
-0.015734172804529725 
-0.008037495920210138 
-0.00650996165486537 
-0.0049824273895206035 
0.008179321487760873 
0.02134107036504235 
0.02134107036504235 
</DataArray>
<DataArray type="Float64" Name="sigma_xy" NumberOfComponents="1" format="ascii" >
0.27922299267391176 
0.27922299267391176 
0.25923040037741263 
0.23923780808091352 
0.21453742323013186 
0.1898370383793502 
0.16716650149393134 
0.14449596460851247 
0.12812913579282953 
0.1117623069771466 
0.10116317839610868 
0.09056404981507075 
0.08520588175230508 
0.0798477136895394 
0.07927673516316316 
0.07870575663678692 
0.07870575663678692 
0.27922299267391176 
0.25923040037741263 
0.21453742323013186 
0.16716650149393134 
0.12812913579282953 
0.10116317839610868 
0.08520588175230508 
0.07927673516316316 
0.07870575663678692 
0.27922299267391176 
0.27922299267391176 
0.25923040037741263 
0.23923780808091352 
0.21453742323013186 
0.1898370383793502 
0.16716650149393134 
0.14449596460851247 
0.12812913579282953 
0.1117623069771466 
0.10116317839610868 
0.09056404981507075 
0.08520588175230508 
0.0798477136895394 
0.07927673516316316 
0.07870575663678692 
0.07870575663678692 
</DataArray>
</PointData>
<CellData>
</CellData>
<Points>
<DataArray type="Float64" Name="Points" NumberOfComponents="3" format="ascii">
0.0 0.0 0.0
0.5 0.0 0.0
1.0 0.0 0.0
1.5 0.0 0.0
2.0 0.0 0.0
2.5 0.0 0.0
3.0 0.0 0.0
3.5 0.0 0.0
4.0 0.0 0.0
4.5 0.0 0.0
5.0 0.0 0.0
5.5 0.0 0.0
6.0 0.0 0.0
6.5 0.0 0.0
7.0 0.0 0.0
7.5 0.0 0.0
8.0 0.0 0.0
0.0 0.25 0.0
1.0 0.25 0.0
2.0 0.25 0.0
3.0 0.25 0.0
4.0 0.25 0.0
5.0 0.25 0.0
6.0 0.25 0.0
7.0 0.25 0.0
8.0 0.25 0.0
0.0 0.5 0.0
0.5 0.5 0.0
1.0 0.5 0.0
1.5 0.5 0.0
2.0 0.5 0.0
2.5 0.5 0.0
3.0 0.5 0.0
3.5 0.5 0.0
4.0 0.5 0.0
4.5 0.5 0.0
5.0 0.5 0.0
5.5 0.5 0.0
6.0 0.5 0.0
6.5 0.5 0.0
7.0 0.5 0.0
7.5 0.5 0.0
8.0 0.5 0.0
</DataArray>
</Points>
<Cells>
<DataArray type="Int64" Name="connectivity" format="ascii">
0 2 28 26 
2 4 30 28 
4 6 32 30 
6 8 34 32 
8 10 36 34 
10 12 38 36 
12 14 40 38 
14 16 42 40 
</DataArray>
<DataArray type="Int64" Name="offsets" format="ascii">
8
16
24
32
40
48
56
64
</DataArray>
<DataArray type="UInt8" Name="types" format="ascii" RangeMin="9" RangeMax="9">
9
9
9
9
9
9
9
9
</DataArray>
</Cells>
</Piece>
</UnstructuredGrid>
</VTKFile>
