<?xml version="1.0"?>
<VTKFile type="UnstructuredGrid" version="0.1" byte_order="LittleEndian" compressor="vtkZLibDataCompressor">
<UnstructuredGrid>
<Piece NumberOfPoints="43" NumberOfCells="8">
<PointData>
<DataArray type="Float64" Name="displacement" NumberOfComponents="3" format="ascii" >
0.0 0.0  0.
0.04085861040758961 0.055751496223075604  0.
0.06148012192992588 0.20721581422228308  0.
0.046061153185543484 0.43905064403866584  0.
-0.0122051044075111 0.7370547228355994  0.
-0.1145599800802401 1.0846414029301026  0.
-0.258743838852307 1.4707656271615412  0.
-0.44175892659968186 1.883982782287736  0.
-0.6589842311094938 2.318182852746816  0.
-0.9058408761664374 2.766321323079729  0.
-1.1772856965473864 3.2250919990781233  0.
-1.4688485255493915 3.6901069403401445  0.
-1.775810185742145 4.159758406737571  0.
-2.094145684130753 4.63104917362616  0.
-2.419424434923442 5.103184288074425  0.
-2.7479890385566645 5.574150870930608  0.
-3.0757314121806494 6.043132978710469  0.
0.0 0.0  0.
-0.026249708548064014 0.18606626929124737  0.
-0.16305469998543273 0.6828706792036987  0.
-0.4485393618883818 1.3801304187390022  0.
-0.8714872723994391 2.19706182932108  0.
-1.402453972671823 3.08145749696428  0.
-2.007578208973182 4.001902848562974  0.
-2.6539205740536485 4.939279071963705  0.
-3.3102242644134434 5.880083411768149  0.
0.0 0.0  0.
-0.0518173487819091 0.04650827359102177  0.
-0.11589600926661169 0.17306508937494755  0.
-0.20212697120414896 0.3724089648621064  0.
-0.3170785410202588 0.6316523878064313  0.
-0.4629537069261678 0.9428847391080905  0.
-0.6409549564318111 1.2918158429065383  0.
-0.8494840278341336 1.6728320815070374  0.
-1.0860559340946978 2.0770855060845763  0.
-1.3470482473118186 2.500944835138546  0.
-1.6290196401805914 2.9384540844621445  0.
-1.9279077713925203 3.3875561898148594  0.
-2.2401112263965715 3.8443982785944293  0.
-2.5615258546325403 4.307833064457198  0.
-2.888638391658216 4.775198458426647  0.
-3.217289644371792 5.246029327140975  0.
-3.544182078583473 5.717826490421944  0.
</DataArray>
<DataArray type="Float64" Name="sigma_xx" NumberOfComponents="1" format="ascii" >
-0.10860737322454225 
-0.10860737322454225 
-0.05488975033387976 
-0.0011721274432172635 
0.044601450959315336 
0.09037502936184794 
0.1131887341872589 
0.13600243901266987 
0.15016472924975638 
0.1643270194868429 
0.17165814787419997 
0.17898927626155708 
0.18187484282159982 
0.1847604093816426 
0.18827817537503694 
0.19179594136843128 
0.19179594136843128 
-0.10860737322454225 
-0.05488975033387976 
0.044601450959315336 
0.1131887341872589 
0.15016472924975638 
0.17165814787419997 
0.18187484282159982 
0.18827817537503694 
0.19179594136843128 
-0.10860737322454225 
-0.10860737322454225 
-0.05488975033387976 
-0.0011721274432172635 
0.044601450959315336 
0.09037502936184794 
0.1131887341872589 
0.13600243901266987 
0.15016472924975638 
0.1643270194868429 
0.17165814787419997 
0.17898927626155708 
0.18187484282159982 
0.1847604093816426 
0.18827817537503694 
0.19179594136843128 
0.19179594136843128 
</DataArray>
<DataArray type="Float64" Name="sigma_yy" NumberOfComponents="1" format="ascii" >
-0.15636706261647706 
-0.15636706261647706 
-0.1664160848736262 
-0.17646510713077532 
-0.1333205379602736 
-0.09017596878977185 
-0.07146587184480116 
-0.05275577489983047 
-0.038316782855688805 
-0.023877790811547145 
-0.016531806565369907 
-0.009185822319192667 
-0.006708739994311309 
-0.0042316576694299505 
0.008063525971682958 
0.02035870961279587 
0.02035870961279587 
-0.15636706261647706 
-0.1664160848736262 
-0.1333205379602736 
-0.07146587184480116 
-0.038316782855688805 
-0.016531806565369907 
-0.006708739994311309 
0.008063525971682958 
0.02035870961279587 
-0.15636706261647706 
-0.15636706261647706 
-0.1664160848736262 
-0.17646510713077532 
-0.1333205379602736 
-0.09017596878977185 
-0.07146587184480116 
-0.05275577489983047 
-0.038316782855688805 
-0.023877790811547145 
-0.016531806565369907 
-0.009185822319192667 
-0.006708739994311309 
-0.0042316576694299505 
0.008063525971682958 
0.02035870961279587 
0.02035870961279587 
</DataArray>
<DataArray type="Float64" Name="sigma_xy" NumberOfComponents="1" format="ascii" >
0.2162971301100958 
0.2162971301100958 
0.20397443744693555 
0.1916517447837753 
0.1756840907998879 
0.15971643681600045 
0.14395144813318858 
0.1281864594503767 
0.11613180674879509 
0.10407715404721345 
0.09579114030735562 
0.0875051265674978 
0.08292312144412897 
0.07834111632076014 
0.07724373741893639 
0.07614635851711266 
0.07614635851711266 
0.2162971301100958 
0.20397443744693555 
0.1756840907998879 
0.14395144813318858 
0.11613180674879509 
0.09579114030735562 
0.08292312144412897 
0.07724373741893639 
0.07614635851711266 
0.2162971301100958 
0.2162971301100958 
0.20397443744693555 
0.1916517447837753 
0.1756840907998879 
0.15971643681600045 
0.14395144813318858 
0.1281864594503767 
0.11613180674879509 
0.10407715404721345 
0.09579114030735562 
0.0875051265674978 
0.08292312144412897 
0.07834111632076014 
0.07724373741893639 
0.07614635851711266 
0.07614635851711266 
</DataArray>
</PointData>
<CellData>
</CellData>
<Points>
<DataArray type="Float64" Name="Points" NumberOfComponents="3" format="ascii">
0.0 0.0 0.0
0.5 0.0 0.0
1.0 0.0 0.0
1.5 0.0 0.0
2.0 0.0 0.0
2.5 0.0 0.0
3.0 0.0 0.0
3.5 0.0 0.0
4.0 0.0 0.0
4.5 0.0 0.0
5.0 0.0 0.0
5.5 0.0 0.0
6.0 0.0 0.0
6.5 0.0 0.0
7.0 0.0 0.0
7.5 0.0 0.0
8.0 0.0 0.0
0.0 0.25 0.0
1.0 0.25 0.0
2.0 0.25 0.0
3.0 0.25 0.0
4.0 0.25 0.0
5.0 0.25 0.0
6.0 0.25 0.0
7.0 0.25 0.0
8.0 0.25 0.0
0.0 0.5 0.0
0.5 0.5 0.0
1.0 0.5 0.0
1.5 0.5 0.0
2.0 0.5 0.0
2.5 0.5 0.0
3.0 0.5 0.0
3.5 0.5 0.0
4.0 0.5 0.0
4.5 0.5 0.0
5.0 0.5 0.0
5.5 0.5 0.0
6.0 0.5 0.0
6.5 0.5 0.0
7.0 0.5 0.0
7.5 0.5 0.0
8.0 0.5 0.0
</DataArray>
</Points>
<Cells>
<DataArray type="Int64" Name="connectivity" format="ascii">
0 2 28 26 
2 4 30 28 
4 6 32 30 
6 8 34 32 
8 10 36 34 
10 12 38 36 
12 14 40 38 
14 16 42 40 
</DataArray>
<DataArray type="Int64" Name="offsets" format="ascii">
8
16
24
32
40
48
56
64
</DataArray>
<DataArray type="UInt8" Name="types" format="ascii" RangeMin="9" RangeMax="9">
9
9
9
9
9
9
9
9
</DataArray>
</Cells>
</Piece>
</UnstructuredGrid>
</VTKFile>
