<?xml version="1.0"?>
<VTKFile type="UnstructuredGrid" version="0.1" byte_order="LittleEndian" compressor="vtkZLibDataCompressor">
<UnstructuredGrid>
<Piece NumberOfPoints="43" NumberOfCells="8">
<PointData>
<DataArray type="Float64" Name="displacement" NumberOfComponents="3" format="ascii" >
0.0 0.0  0.
0.025060449370329484 0.030457620226344663  0.
0.04361271651092804 0.11643200771667798  0.
0.049071876297006066 0.25283910013982763  0.
0.037703940326394826 0.43506329917733944  0.
0.007359638561649219 0.6560857255083605  0.
-0.04210100909267025 0.9107490047452989  0.
-0.11115002201009669 1.1931056924966912  0.
-0.19861773839542013 1.4992106754697243  0.
-0.30359462216323774 1.824211522991577  0.
-0.42397130223276047 2.1649935093843675  0.
-0.5582008748636909 2.517657763994584  0.
-0.7037196931352255 2.8798337347737624  0.
-0.8586813502633859 3.2483008686965285  0.
-1.0202749340828876 3.621143002404093  0.
-1.1865732541255167 3.9957334029944183  0.
-1.354631646555163 4.370217236570941  0.
0.0 0.0  0.
-0.00889596878202 0.10803679020812314  0.
-0.0587191775145224 0.4138922221154098  0.
-0.17152770526947078 0.872939376234415  0.
-0.3519839543964119 1.4452909409871257  0.
-0.593806020521744 2.0974131703235095  0.
-0.8840160394688946 2.8023213926307093  0.
-1.2060613014557386 3.5381527564356174  0.
-1.5417072599442727 4.28625996849401  0.
0.0 0.0  0.
-0.028669296662521115 0.02736783065446336  0.
-0.0620609832345341 0.10457733575699525  0.
-0.10362514324360114 0.22872366922473986  0.
-0.15647809818495603 0.3952424695994781  0.
-0.22199058133284638 0.6002652249596493  0.
-0.30224588060572044 0.837320783585496  0.
-0.3970463834738737 1.1031612942868028  0.
-0.5065370621133439 1.3928192908971002  0.
-0.6293022513675147 1.703442909475421  0.
-0.7645633858142238 2.0308062735497647  0.
-0.9102272538521378 2.3726009116660935  0.
-1.0649171269674411 2.725390934017907  0.
-1.2261102705777172 3.0872679520772843  0.
-1.3921142919299765 3.455321951040392  0.
-1.5601511797414995 3.8279086357736873  0.
-1.7286635392847358 4.202456042812999  0.
</DataArray>
<DataArray type="Float64" Name="sigma_xx" NumberOfComponents="1" format="ascii" >
-0.039276222831369445 
-0.039276222831369445 
-0.02681460417662704 
-0.014352985521884637 
-0.0003454477616769364 
0.013662089998530764 
0.022230413476339604 
0.030798736954148448 
0.03744981523306905 
0.044100893511989654 
0.048349624682448994 
0.05259835585290834 
0.05502345072826615 
0.05744854560362396 
0.059450932646781626 
0.061453319689939286 
0.061453319689939286 
-0.039276222831369445 
-0.02681460417662704 
-0.0003454477616769364 
0.022230413476339604 
0.03744981523306905 
0.048349624682448994 
0.05502345072826615 
0.059450932646781626 
0.061453319689939286 
-0.039276222831369445 
-0.039276222831369445 
-0.02681460417662704 
-0.014352985521884637 
-0.0003454477616769364 
0.013662089998530764 
0.022230413476339604 
0.030798736954148448 
0.03744981523306905 
0.044100893511989654 
0.048349624682448994 
0.05259835585290834 
0.05502345072826615 
0.05744854560362396 
0.059450932646781626 
0.061453319689939286 
0.061453319689939286 
</DataArray>
<DataArray type="Float64" Name="sigma_yy" NumberOfComponents="1" format="ascii" >
-0.05438044532334295 
-0.05438044532334295 
-0.06159292107539231 
-0.06880539682744168 
-0.055249645452800256 
-0.041693894078158836 
-0.03494099777641043 
-0.02818810147466202 
-0.021704831628335614 
-0.015221561782009202 
-0.011217398806308364 
-0.0072132358306075265 
-0.004528007315827511 
-0.0018427788010474961 
0.006782363035228299 
0.015407504871504094 
0.015407504871504094 
-0.05438044532334295 
-0.06159292107539231 
-0.055249645452800256 
-0.03494099777641043 
-0.021704831628335614 
-0.011217398806308364 
-0.004528007315827511 
0.006782363035228299 
0.015407504871504094 
-0.05438044532334295 
-0.05438044532334295 
-0.06159292107539231 
-0.06880539682744168 
-0.055249645452800256 
-0.041693894078158836 
-0.03494099777641043 
-0.02818810147466202 
-0.021704831628335614 
-0.015221561782009202 
-0.011217398806308364 
-0.0072132358306075265 
-0.004528007315827511 
-0.0018427788010474961 
0.006782363035228299 
0.015407504871504094 
0.015407504871504094 
</DataArray>
<DataArray type="Float64" Name="sigma_xy" NumberOfComponents="1" format="ascii" >
0.08812634137393734 
0.08812634137393734 
0.08615270674274764 
0.08417907211155794 
0.08159705777043523 
0.07901504342931252 
0.07589451568459818 
0.07277398793988384 
0.0700370829120199 
0.06730017788415597 
0.06513040966277393 
0.06296064144139189 
0.061539447342275726 
0.06011825324315956 
0.05951058397813189 
0.05890291471310421 
0.05890291471310421 
0.08812634137393734 
0.08615270674274764 
0.08159705777043523 
0.07589451568459818 
0.0700370829120199 
0.06513040966277393 
0.061539447342275726 
0.05951058397813189 
0.05890291471310421 
0.08812634137393734 
0.08812634137393734 
0.08615270674274764 
0.08417907211155794 
0.08159705777043523 
0.07901504342931252 
0.07589451568459818 
0.07277398793988384 
0.0700370829120199 
0.06730017788415597 
0.06513040966277393 
0.06296064144139189 
0.061539447342275726 
0.06011825324315956 
0.05951058397813189 
0.05890291471310421 
0.05890291471310421 
</DataArray>
</PointData>
<CellData>
</CellData>
<Points>
<DataArray type="Float64" Name="Points" NumberOfComponents="3" format="ascii">
0.0 0.0 0.0
0.5 0.0 0.0
1.0 0.0 0.0
1.5 0.0 0.0
2.0 0.0 0.0
2.5 0.0 0.0
3.0 0.0 0.0
3.5 0.0 0.0
4.0 0.0 0.0
4.5 0.0 0.0
5.0 0.0 0.0
5.5 0.0 0.0
6.0 0.0 0.0
6.5 0.0 0.0
7.0 0.0 0.0
7.5 0.0 0.0
8.0 0.0 0.0
0.0 0.25 0.0
1.0 0.25 0.0
2.0 0.25 0.0
3.0 0.25 0.0
4.0 0.25 0.0
5.0 0.25 0.0
6.0 0.25 0.0
7.0 0.25 0.0
8.0 0.25 0.0
0.0 0.5 0.0
0.5 0.5 0.0
1.0 0.5 0.0
1.5 0.5 0.0
2.0 0.5 0.0
2.5 0.5 0.0
3.0 0.5 0.0
3.5 0.5 0.0
4.0 0.5 0.0
4.5 0.5 0.0
5.0 0.5 0.0
5.5 0.5 0.0
6.0 0.5 0.0
6.5 0.5 0.0
7.0 0.5 0.0
7.5 0.5 0.0
8.0 0.5 0.0
</DataArray>
</Points>
<Cells>
<DataArray type="Int64" Name="connectivity" format="ascii">
0 2 28 26 
2 4 30 28 
4 6 32 30 
6 8 34 32 
8 10 36 34 
10 12 38 36 
12 14 40 38 
14 16 42 40 
</DataArray>
<DataArray type="Int64" Name="offsets" format="ascii">
8
16
24
32
40
48
56
64
</DataArray>
<DataArray type="UInt8" Name="types" format="ascii" RangeMin="9" RangeMax="9">
9
9
9
9
9
9
9
9
</DataArray>
</Cells>
</Piece>
</UnstructuredGrid>
</VTKFile>
