<?xml version="1.0"?>
<VTKFile type="UnstructuredGrid" version="0.1" byte_order="LittleEndian" compressor="vtkZLibDataCompressor">
<UnstructuredGrid>
<Piece NumberOfPoints="43" NumberOfCells="8">
<PointData>
<DataArray type="Float64" Name="displacement" NumberOfComponents="3" format="ascii" >
0.0 0.0  0.
0.05277028975103233 0.08055243796755629  0.
0.06687507217915911 0.28939282457652843  0.
0.01910740140219171 0.5957228056242176  0.
-0.09568420930388216 0.9730345017872962  0.
-0.2728137958746115 1.396065231386021  0.
-0.5043289292549197 1.850241524141291  0.
-0.7816481592902274 2.322022700324067  0.
-1.096303472909986 2.8060556254241846  0.
-1.440587710536558 3.296026983084448  0.
-1.8076944320965647 3.790141968559118  0.
-2.191770113050012 4.285211818189365  0.
-2.5875210314394232 4.780932464697284  0.
-2.9903708634508224 5.27521283746326  0.
-3.395719468666209 5.768240498608333  0.
-3.799493719396159 6.258802796232253  0.
-4.197687454228745 6.746510043926509  0.
0.0 0.0  0.
-0.04845818686980297 0.2535333366955907  0.
-0.28044585563808605 0.8861628046236312  0.
-0.7232456380705646 1.7158798489028106  0.
-1.330889716618295 2.638004699849983  0.
-2.0492599771708995 3.6007667521863067  0.
-2.8319944965844512 4.580497909314165  0.
-3.640951059783954 5.565974908279004  0.
-4.442052853895619 6.5492234883955245  0.
0.0 0.0  0.
-0.0737159200147234 0.0632149129419679  0.
-0.16723628960867556 0.22816185846219514  0.
-0.29672187862077115 0.4819939287984425  0.
-0.4696904989114336 0.8016355551497802  0.
-0.6867671959287828 1.175594021106394  0.
-0.9452667909985178 1.583336790328479  0.
-1.2408332770137451 2.0183714307886613  0.
-1.567559003452504 2.4705560592993696  0.
-1.9197661925901517 2.936860120206945  0.
-2.2920208990272144 3.411656159990625  0.
-2.679273629941725 3.893822245354669  0.
-3.0769413988251197 4.380276536895983  0.
-3.4805590080318916 4.870678055513138  0.
-3.8860838141636735 5.363175820283259  0.
-4.289113130176689 5.858301576831687  0.
-4.685410838821878 6.353784258735068  0.
</DataArray>
<DataArray type="Float64" Name="sigma_xx" NumberOfComponents="1" format="ascii" >
-0.18300972691437647 
-0.18300972691437647 
-0.05013399597452483 
0.08274173496532682 
0.16866557307638474 
0.25458941118744266 
0.28785571721239217 
0.3211220232373417 
0.3375375342778798 
0.353953045318418 
0.3606480449886887 
0.3673430446589594 
0.3682690502096345 
0.3691950557603096 
0.37378237036580764 
0.3783696849713057 
0.3783696849713057 
-0.18300972691437647 
-0.05013399597452483 
0.16866557307638474 
0.28785571721239217 
0.3375375342778798 
0.3606480449886887 
0.3682690502096345 
0.37378237036580764 
0.3783696849713057 
-0.18300972691437647 
-0.18300972691437647 
-0.05013399597452483 
0.08274173496532682 
0.16866557307638474 
0.25458941118744266 
0.28785571721239217 
0.3211220232373417 
0.3375375342778798 
0.353953045318418 
0.3606480449886887 
0.3673430446589594 
0.3682690502096345 
0.3691950557603096 
0.37378237036580764 
0.3783696849713057 
0.3783696849713057 
</DataArray>
<DataArray type="Float64" Name="sigma_yy" NumberOfComponents="1" format="ascii" >
-0.2812667407927746 
-0.2812667407927746 
-0.279440663913191 
-0.2776145870336074 
-0.19628314809432115 
-0.11495170915503489 
-0.08594178590112665 
-0.05693186264721841 
-0.03864572219131959 
-0.02035958173542077 
-0.012867146614516095 
-0.005374711493611421 
-0.0060200384575818345 
-0.006665365421552248 
0.008263860478230734 
0.023193086378013716 
0.023193086378013716 
-0.2812667407927746 
-0.279440663913191 
-0.19628314809432115 
-0.08594178590112665 
-0.03864572219131959 
-0.012867146614516095 
-0.0060200384575818345 
0.008263860478230734 
0.023193086378013716 
-0.2812667407927746 
-0.2812667407927746 
-0.279440663913191 
-0.2776145870336074 
-0.19628314809432115 
-0.11495170915503489 
-0.08594178590112665 
-0.05693186264721841 
-0.03864572219131959 
-0.02035958173542077 
-0.012867146614516095 
-0.005374711493611421 
-0.0060200384575818345 
-0.006665365421552248 
0.008263860478230734 
0.023193086378013716 
0.023193086378013716 
</DataArray>
<DataArray type="Float64" Name="sigma_xy" NumberOfComponents="1" format="ascii" >
0.40319462370111797 
0.40319462370111797 
0.364065296146437 
0.324935968591756 
0.280984111637452 
0.23703225468314804 
0.20123970064514773 
0.1654471466071474 
0.1420178588756889 
0.11858857114423044 
0.1049732982536285 
0.09135802536302655 
0.08582763993143333 
0.0802972544998401 
0.08204655921193789 
0.08379586392403568 
0.08379586392403568 
0.40319462370111797 
0.364065296146437 
0.280984111637452 
0.20123970064514773 
0.1420178588756889 
0.1049732982536285 
0.08582763993143333 
0.08204655921193789 
0.08379586392403568 
0.40319462370111797 
0.40319462370111797 
0.364065296146437 
0.324935968591756 
0.280984111637452 
0.23703225468314804 
0.20123970064514773 
0.1654471466071474 
0.1420178588756889 
0.11858857114423044 
0.1049732982536285 
0.09135802536302655 
0.08582763993143333 
0.0802972544998401 
0.08204655921193789 
0.08379586392403568 
0.08379586392403568 
</DataArray>
</PointData>
<CellData>
</CellData>
<Points>
<DataArray type="Float64" Name="Points" NumberOfComponents="3" format="ascii">
0.0 0.0 0.0
0.5 0.0 0.0
1.0 0.0 0.0
1.5 0.0 0.0
2.0 0.0 0.0
2.5 0.0 0.0
3.0 0.0 0.0
3.5 0.0 0.0
4.0 0.0 0.0
4.5 0.0 0.0
5.0 0.0 0.0
5.5 0.0 0.0
6.0 0.0 0.0
6.5 0.0 0.0
7.0 0.0 0.0
7.5 0.0 0.0
8.0 0.0 0.0
0.0 0.25 0.0
1.0 0.25 0.0
2.0 0.25 0.0
3.0 0.25 0.0
4.0 0.25 0.0
5.0 0.25 0.0
6.0 0.25 0.0
7.0 0.25 0.0
8.0 0.25 0.0
0.0 0.5 0.0
0.5 0.5 0.0
1.0 0.5 0.0
1.5 0.5 0.0
2.0 0.5 0.0
2.5 0.5 0.0
3.0 0.5 0.0
3.5 0.5 0.0
4.0 0.5 0.0
4.5 0.5 0.0
5.0 0.5 0.0
5.5 0.5 0.0
6.0 0.5 0.0
6.5 0.5 0.0
7.0 0.5 0.0
7.5 0.5 0.0
8.0 0.5 0.0
</DataArray>
</Points>
<Cells>
<DataArray type="Int64" Name="connectivity" format="ascii">
0 2 28 26 
2 4 30 28 
4 6 32 30 
6 8 34 32 
8 10 36 34 
10 12 38 36 
12 14 40 38 
14 16 42 40 
</DataArray>
<DataArray type="Int64" Name="offsets" format="ascii">
8
16
24
32
40
48
56
64
</DataArray>
<DataArray type="UInt8" Name="types" format="ascii" RangeMin="9" RangeMax="9">
9
9
9
9
9
9
9
9
</DataArray>
</Cells>
</Piece>
</UnstructuredGrid>
</VTKFile>
