<?xml version="1.0"?>
<VTKFile type="UnstructuredGrid" version="0.1" byte_order="LittleEndian" compressor="vtkZLibDataCompressor">
<UnstructuredGrid>
<Piece NumberOfPoints="43" NumberOfCells="8">
<PointData>
<DataArray type="Float64" Name="displacement" NumberOfComponents="3" format="ascii" >
0.0 0.0  0.
0.05175248433543715 0.07815560700111945  0.
0.06677805472644242 0.2817405692403502  0.
0.022433837994028264 0.5816325529522147  0.
-0.08681435790548452 0.9525305649078128  0.
-0.2570296825236657 1.3698855435211903  0.
-0.48087438090404677 1.8193116483147993  0.
-0.7503042721702858 2.2873186706499755  0.
-1.0571691063585384 2.7683849888117864  0.
-1.3939871362623126 3.2560544374211355  0.
-1.7540515931508238 3.7483669325727336  0.
-2.131571215191421 4.242004636855983  0.
-2.521257088092883 4.736556176779051  0.
-2.9185404999724964 5.2298582254568435  0.
-3.3188126299139973 5.7220328721560465  0.
-3.718021039739435 6.211813466316839  0.
-4.1121458507245245 6.698805697460216  0.
0.0 0.0  0.
-0.04614851491945574 0.2473520535145949  0.
-0.2689399691942985 0.8686773761594809  0.
-0.6978068974932958 1.6886536177235771  0.
-1.290442035645681 2.603991285268195  0.
-1.9947586321523623 3.562292382512821  0.
-2.765129701558795 4.538980569265842  0.
-3.5635668582722704 5.5221442631727955  0.
-4.356098404559219 6.5034497714282224  0.
0.0 0.0  0.
-0.07162997078595637 0.061670385250197066  0.
-0.16236627392379818 0.223256784607195  0.
-0.2877921634147415 0.4724748218438768  0.
-0.455452119360472 0.787254598269154  0.
-0.6662093169700991 1.156398157529539  0.
-0.9178282703271217 1.5598670531879297  0.
-1.2062325917595769 1.9911872123660395  0.
-1.5258195650134911 2.4402455223380293  0.
-1.8710728735973345 2.9039211290969655  0.
-2.236694176913984 3.3765092986515017  0.
-2.617685973682936 3.856798651531636  0.
-3.009510772771393 4.3416237791913215  0.
-3.407708498450001 4.8305834891309765  0.
-3.8082573436959644 5.321756479185181  0.
-4.2067686969545806 5.815595677534418  0.
-4.599092878753066 6.309826885108463  0.
</DataArray>
<DataArray type="Float64" Name="sigma_xx" NumberOfComponents="1" format="ascii" >
-0.17599005175250118 
-0.17599005175250118 
-0.052459719479077904 
0.07107061279434537 
0.15306721989538855 
0.23506382699643172 
0.267627553276278 
0.3001912795561243 
0.3166071064360117 
0.3330229333158991 
0.33987560729238026 
0.3467282812688614 
0.34788612242913586 
0.3490439635894103 
0.3535195247419237 
0.35799508589443707 
0.35799508589443707 
-0.17599005175250118 
-0.052459719479077904 
0.15306721989538855 
0.267627553276278 
0.3166071064360117 
0.33987560729238026 
0.34788612242913586 
0.3535195247419237 
0.35799508589443707 
-0.17599005175250118 
-0.17599005175250118 
-0.052459719479077904 
0.07107061279434537 
0.15306721989538855 
0.23506382699643172 
0.267627553276278 
0.3001912795561243 
0.3166071064360117 
0.3330229333158991 
0.33987560729238026 
0.3467282812688614 
0.34788612242913586 
0.3490439635894103 
0.3535195247419237 
0.35799508589443707 
0.35799508589443707 
</DataArray>
<DataArray type="Float64" Name="sigma_yy" NumberOfComponents="1" format="ascii" >
-0.2684884658395895 
-0.2684884658395895 
-0.2684915037632135 
-0.26849454168683756 
-0.19101390803340373 
-0.11353327437996988 
-0.08533076039191545 
-0.05712824640386101 
-0.03902868565248013 
-0.02092912490109925 
-0.013358146813064981 
-0.005787168725030712 
-0.006068399746345345 
-0.006349630767659978 
0.008256245734165508 
0.022862122235990996 
0.022862122235990996 
-0.2684884658395895 
-0.2684915037632135 
-0.19101390803340373 
-0.08533076039191545 
-0.03902868565248013 
-0.013358146813064981 
-0.006068399746345345 
0.008256245734165508 
0.022862122235990996 
-0.2684884658395895 
-0.2684884658395895 
-0.2684915037632135 
-0.26849454168683756 
-0.19101390803340373 
-0.11353327437996988 
-0.08533076039191545 
-0.05712824640386101 
-0.03902868565248013 
-0.02092912490109925 
-0.013358146813064981 
-0.005787168725030712 
-0.006068399746345345 
-0.006349630767659978 
0.008256245734165508 
0.022862122235990996 
0.022862122235990996 
</DataArray>
<DataArray type="Float64" Name="sigma_xy" NumberOfComponents="1" format="ascii" >
0.3826955706764204 
0.3826955706764204 
0.34706790122847153 
0.3114402317805227 
0.2708012926077991 
0.23016235343507555 
0.19646340191160033 
0.16276445038812512 
0.14037065155129025 
0.11797685271445536 
0.10473452375036962 
0.09149219478628388 
0.08588402679779392 
0.08027585880930393 
0.08153610336761022 
0.08279634792591652 
0.08279634792591652 
0.3826955706764204 
0.34706790122847153 
0.2708012926077991 
0.19646340191160033 
0.14037065155129025 
0.10473452375036962 
0.08588402679779392 
0.08153610336761022 
0.08279634792591652 
0.3826955706764204 
0.3826955706764204 
0.34706790122847153 
0.3114402317805227 
0.2708012926077991 
0.23016235343507555 
0.19646340191160033 
0.16276445038812512 
0.14037065155129025 
0.11797685271445536 
0.10473452375036962 
0.09149219478628388 
0.08588402679779392 
0.08027585880930393 
0.08153610336761022 
0.08279634792591652 
0.08279634792591652 
</DataArray>
</PointData>
<CellData>
</CellData>
<Points>
<DataArray type="Float64" Name="Points" NumberOfComponents="3" format="ascii">
0.0 0.0 0.0
0.5 0.0 0.0
1.0 0.0 0.0
1.5 0.0 0.0
2.0 0.0 0.0
2.5 0.0 0.0
3.0 0.0 0.0
3.5 0.0 0.0
4.0 0.0 0.0
4.5 0.0 0.0
5.0 0.0 0.0
5.5 0.0 0.0
6.0 0.0 0.0
6.5 0.0 0.0
7.0 0.0 0.0
7.5 0.0 0.0
8.0 0.0 0.0
0.0 0.25 0.0
1.0 0.25 0.0
2.0 0.25 0.0
3.0 0.25 0.0
4.0 0.25 0.0
5.0 0.25 0.0
6.0 0.25 0.0
7.0 0.25 0.0
8.0 0.25 0.0
0.0 0.5 0.0
0.5 0.5 0.0
1.0 0.5 0.0
1.5 0.5 0.0
2.0 0.5 0.0
2.5 0.5 0.0
3.0 0.5 0.0
3.5 0.5 0.0
4.0 0.5 0.0
4.5 0.5 0.0
5.0 0.5 0.0
5.5 0.5 0.0
6.0 0.5 0.0
6.5 0.5 0.0
7.0 0.5 0.0
7.5 0.5 0.0
8.0 0.5 0.0
</DataArray>
</Points>
<Cells>
<DataArray type="Int64" Name="connectivity" format="ascii">
0 2 28 26 
2 4 30 28 
4 6 32 30 
6 8 34 32 
8 10 36 34 
10 12 38 36 
12 14 40 38 
14 16 42 40 
</DataArray>
<DataArray type="Int64" Name="offsets" format="ascii">
8
16
24
32
40
48
56
64
</DataArray>
<DataArray type="UInt8" Name="types" format="ascii" RangeMin="9" RangeMax="9">
9
9
9
9
9
9
9
9
</DataArray>
</Cells>
</Piece>
</UnstructuredGrid>
</VTKFile>
