<?xml version="1.0"?>
<VTKFile type="UnstructuredGrid" version="0.1" byte_order="LittleEndian" compressor="vtkZLibDataCompressor">
<UnstructuredGrid>
<Piece NumberOfPoints="43" NumberOfCells="8">
<PointData>
<DataArray type="Float64" Name="displacement" NumberOfComponents="3" format="ascii" >
0.0 0.0  0.
0.03449337853414129 0.04475475898989797  0.
0.05548405340789467 0.16859690955200904  0.
0.051199586631163835 0.3614105851198823  0.
0.015713536734052975 0.6137679911048386  0.
-0.05325611656792952 0.9134130383698539  0.
-0.15503664109991772 1.25178755321952  0.
-0.28862802865090637 1.6195396048061936  0.
-0.45116381095168123 2.011147071975246  0.
-0.6397934943047372 2.4200848140747206  0.
-0.850715357127598 2.842805252903882  0.
-1.0806286251100126 3.2747749798943824  0.
-1.3255590841371043 3.713853466501556  0.
-1.5822215526896948 4.156712610250562  0.
-1.8466400007236146 4.601976386291887  0.
-2.1156872529182325 5.047215110195319  0.
-2.3854838922524038 5.491153928596547  0.
0.0 0.0  0.
-0.017885845739023826 0.15339756304788488  0.
-0.11435576741453275 0.5744790520216395  0.
-0.3235043846716023 1.183881895122889  0.
-0.6444198390138189 1.9175968872574791  0.
-1.0592123121518782 2.7290632926856655  0.
-1.5427710485271768 3.5864641268558164  0.
-2.067915151451567 4.467887140299212  0.
-2.6073186763023433 5.356705961777718  0.
0.0 0.0  0.
-0.041858792914124025 0.03849746583197608  0.
-0.09257029133140389 0.14505803739243714  0.
-0.15912776604042422 0.3145545828618971  0.
-0.2468257811393323 0.5381407079458378  0.
-0.3577974130106539 0.8097156897506638  0.
-0.49410682348357204 1.1183837447324823  0.
-0.6550247826202832 1.4594308110905851  0.
-0.8394815459752127 1.825414481431651  0.
-1.0448909533492892 2.2128315307217705  0.
-1.2690126663681498 2.616148195354043  0.
-1.5085514115321565 3.0330288033629813  0.
-1.7607626102489542 3.459538711725103  0.
-2.0220420325790456 3.894108910303613  0.
-2.289484613231672 4.333783049247115  0.
-2.5593022063702127 4.77753128379747  0.
-2.8288092536700264 5.222703772372056  0.
</DataArray>
<DataArray type="Float64" Name="sigma_xx" NumberOfComponents="1" format="ascii" >
-0.07644735063508208 
-0.07644735063508208 
-0.04524808654138408 
-0.014048822447686089 
0.01604179435330079 
0.046132411154287664 
0.06268933870228346 
0.07924626625027928 
0.09063172049074882 
0.10201717473121835 
0.10852311441826105 
0.11502905410530376 
0.1181335760367721 
0.12123809796824044 
0.12421726525437779 
0.12719643254051513 
0.12719643254051513 
-0.07644735063508208 
-0.04524808654138408 
0.01604179435330079 
0.06268933870228346 
0.09063172049074882 
0.10852311441826105 
0.1181335760367721 
0.12421726525437779 
0.12719643254051513 
-0.07644735063508208 
-0.07644735063508208 
-0.04524808654138408 
-0.014048822447686089 
0.01604179435330079 
0.046132411154287664 
0.06268933870228346 
0.07924626625027928 
0.09063172049074882 
0.10201717473121835 
0.10852311441826105 
0.11502905410530376 
0.1181335760367721 
0.12123809796824044 
0.12421726525437779 
0.12719643254051513 
0.12719643254051513 
</DataArray>
<DataArray type="Float64" Name="sigma_yy" NumberOfComponents="1" format="ascii" >
-0.10782195362467156 
-0.10782195362467156 
-0.11816439569227122 
-0.12850683775987087 
-0.09991002635943466 
-0.07131321495899846 
-0.05800373335681796 
-0.044694251754637454 
-0.033376798638976635 
-0.022059345523315822 
-0.01575207273078228 
-0.009444799938248736 
-0.006390302904395454 
-0.0033358058705421725 
0.007748555535596291 
0.018832916941734754 
0.018832916941734754 
-0.10782195362467156 
-0.11816439569227122 
-0.09991002635943466 
-0.05800373335681796 
-0.033376798638976635 
-0.01575207273078228 
-0.006390302904395454 
0.007748555535596291 
0.018832916941734754 
-0.10782195362467156 
-0.10782195362467156 
-0.11816439569227122 
-0.12850683775987087 
-0.09991002635943466 
-0.07131321495899846 
-0.05800373335681796 
-0.044694251754637454 
-0.033376798638976635 
-0.022059345523315822 
-0.01575207273078228 
-0.009444799938248736 
-0.006390302904395454 
-0.0033358058705421725 
0.007748555535596291 
0.018832916941734754 
0.018832916941734754 
</DataArray>
<DataArray type="Float64" Name="sigma_xy" NumberOfComponents="1" format="ascii" >
0.15265318922139912 
0.15265318922139912 
0.1464516198967356 
0.14025005057207213 
0.13190759774731864 
0.12356514492256515 
0.11457710185940964 
0.10558905879625412 
0.09825440563366629 
0.09091975247107846 
0.0855327318651323 
0.08014571125918615 
0.07690490855526197 
0.07366410585133779 
0.07255224479126718 
0.07144038373119659 
0.07144038373119659 
0.15265318922139912 
0.1464516198967356 
0.13190759774731864 
0.11457710185940964 
0.09825440563366629 
0.0855327318651323 
0.07690490855526197 
0.07255224479126718 
0.07144038373119659 
0.15265318922139912 
0.15265318922139912 
0.1464516198967356 
0.14025005057207213 
0.13190759774731864 
0.12356514492256515 
0.11457710185940964 
0.10558905879625412 
0.09825440563366629 
0.09091975247107846 
0.0855327318651323 
0.08014571125918615 
0.07690490855526197 
0.07366410585133779 
0.07255224479126718 
0.07144038373119659 
0.07144038373119659 
</DataArray>
</PointData>
<CellData>
</CellData>
<Points>
<DataArray type="Float64" Name="Points" NumberOfComponents="3" format="ascii">
0.0 0.0 0.0
0.5 0.0 0.0
1.0 0.0 0.0
1.5 0.0 0.0
2.0 0.0 0.0
2.5 0.0 0.0
3.0 0.0 0.0
3.5 0.0 0.0
4.0 0.0 0.0
4.5 0.0 0.0
5.0 0.0 0.0
5.5 0.0 0.0
6.0 0.0 0.0
6.5 0.0 0.0
7.0 0.0 0.0
7.5 0.0 0.0
8.0 0.0 0.0
0.0 0.25 0.0
1.0 0.25 0.0
2.0 0.25 0.0
3.0 0.25 0.0
4.0 0.25 0.0
5.0 0.25 0.0
6.0 0.25 0.0
7.0 0.25 0.0
8.0 0.25 0.0
0.0 0.5 0.0
0.5 0.5 0.0
1.0 0.5 0.0
1.5 0.5 0.0
2.0 0.5 0.0
2.5 0.5 0.0
3.0 0.5 0.0
3.5 0.5 0.0
4.0 0.5 0.0
4.5 0.5 0.0
5.0 0.5 0.0
5.5 0.5 0.0
6.0 0.5 0.0
6.5 0.5 0.0
7.0 0.5 0.0
7.5 0.5 0.0
8.0 0.5 0.0
</DataArray>
</Points>
<Cells>
<DataArray type="Int64" Name="connectivity" format="ascii">
0 2 28 26 
2 4 30 28 
4 6 32 30 
6 8 34 32 
8 10 36 34 
10 12 38 36 
12 14 40 38 
14 16 42 40 
</DataArray>
<DataArray type="Int64" Name="offsets" format="ascii">
8
16
24
32
40
48
56
64
</DataArray>
<DataArray type="UInt8" Name="types" format="ascii" RangeMin="9" RangeMax="9">
9
9
9
9
9
9
9
9
</DataArray>
</Cells>
</Piece>
</UnstructuredGrid>
</VTKFile>
