<?xml version="1.0"?>
<VTKFile type="UnstructuredGrid" version="0.1" byte_order="LittleEndian" compressor="vtkZLibDataCompressor">
<UnstructuredGrid>
<Piece NumberOfPoints="43" NumberOfCells="8">
<PointData>
<DataArray type="Float64" Name="displacement" NumberOfComponents="3" format="ascii" >
0.0 0.0  0.
0.03895589036985067 0.05233002568359019  0.
0.05988160589203987 0.19534523948433022  0.
0.04820376135596162 0.41545112460183925  0.
-0.0027083524459277455 0.7000093901704296  0.
-0.09453480085483328 1.0337793303955867  0.
-0.22559510637537414 1.4064491557687708  0.
-0.3935750124795496 1.807154418358027  0.
-0.5944208921433347 2.229900028186078  0.
-0.8240888419751551 2.6677317725216554  0.
-1.0779003994423848 3.1172229082350147  0.
-1.3517162022434632 3.5738952126040573  0.
-1.64101211215489 4.035957728086063  0.
-1.941953690964591 4.500290236014378  0.
-2.2502150306663102 4.96591799999422  0.
-2.562269190110001 5.430691650532857  0.
-2.8740448154729603 5.8936663733329056  0.
0.0 0.0  0.
-0.02353137999936343 0.1760985851304644  0.
-0.14753066757576794 0.6504820060663262  0.
-0.40945429539532807 1.3227240185974054  0.
-0.8017894883040348 2.116936538724971  0.
-1.2987928875542651 2.9822225068333466  0.
-1.8691639376073816 3.886725862457416  0.
-2.481492324275772 4.810310799190108  0.
-3.105482755064552 5.73847936811446  0.
0.0 0.0  0.
-0.04873647361027569 0.044061242300216207  0.
-0.10866655801870878 0.16461697525905616  0.
-0.18877876624926432 0.3551028624594734  0.
-0.29529632517304316 0.6039408382859366  0.
-0.43045571811162403 0.9037804991051422  0.
-0.5958013429544402 1.2413628742084788  0.
-0.7900431242221176 1.6113234155443792  0.
-1.0111635165920074 2.0051941520567453  0.
-1.2558652552921281 2.4193498645604454  0.
-1.5210705028119493 2.847915339726337  0.
-1.8029353140151625 3.2887278804139175  0.
-2.0980969396205524 3.7378780790649353  0.
-2.4025775757698673 4.1940846660359625  0.
-2.7130210159473784 4.6545785744607215  0.
-3.0253536175172298 5.118723241906533  0.
-3.3364459724130264 5.583967174522227  0.
</DataArray>
<DataArray type="Float64" Name="sigma_xx" NumberOfComponents="1" format="ascii" >
-0.09841157222147945 
-0.09841157222147945 
-0.052513858894372906 
-0.006616145567266369 
0.034036142175899925 
0.07468842991906621 
0.09560924962965828 
0.11653006934025034 
0.12994223550005723 
0.14335440165986416 
0.15051981894808197 
0.15768523623629982 
0.16070155659207236 
0.16371787694784493 
0.167081791209356 
0.1704457054708671 
0.1704457054708671 
-0.09841157222147945 
-0.052513858894372906 
0.034036142175899925 
0.09560924962965828 
0.12994223550005723 
0.15051981894808197 
0.16070155659207236 
0.167081791209356 
0.1704457054708671 
-0.09841157222147945 
-0.09841157222147945 
-0.052513858894372906 
-0.006616145567266369 
0.034036142175899925 
0.07468842991906621 
0.09560924962965828 
0.11653006934025034 
0.12994223550005723 
0.14335440165986416 
0.15051981894808197 
0.15768523623629982 
0.16070155659207236 
0.16371787694784493 
0.167081791209356 
0.1704457054708671 
0.1704457054708671 
</DataArray>
<DataArray type="Float64" Name="sigma_yy" NumberOfComponents="1" format="ascii" >
-0.14070042552167672 
-0.14070042552167672 
-0.15114850425419907 
-0.16159658298672144 
-0.12320589087978054 
-0.08481519877283962 
-0.06777207246239794 
-0.050728946151956264 
-0.03717525130413025 
-0.023621556456304236 
-0.016522463710649603 
-0.009423370964994973 
-0.006693346752762872 
-0.003963322540530772 
0.007992974859667799 
0.01994927225986637 
0.01994927225986637 
-0.14070042552167672 
-0.15114850425419907 
-0.12320589087978054 
-0.06777207246239794 
-0.03717525130413025 
-0.016522463710649603 
-0.006693346752762872 
0.007992974859667799 
0.01994927225986637 
-0.14070042552167672 
-0.14070042552167672 
-0.15114850425419907 
-0.16159658298672144 
-0.12320589087978054 
-0.08481519877283962 
-0.06777207246239794 
-0.050728946151956264 
-0.03717525130413025 
-0.023621556456304236 
-0.016522463710649603 
-0.009423370964994973 
-0.006693346752762872 
-0.003963322540530772 
0.007992974859667799 
0.01994927225986637 
0.01994927225986637 
</DataArray>
<DataArray type="Float64" Name="sigma_xy" NumberOfComponents="1" format="ascii" >
0.19516754644902723 
0.19516754644902723 
0.18507109690347817 
0.1749746473579291 
0.16169972346513098 
0.14842479957233287 
0.13495746875097842 
0.12149013792962393 
0.11097623302307666 
0.10046232811652937 
0.09308060928537336 
0.08569889045421734 
0.08149932802380308 
0.0772997655933888 
0.07613776717956415 
0.0749757687657395 
0.0749757687657395 
0.19516754644902723 
0.18507109690347817 
0.16169972346513098 
0.13495746875097842 
0.11097623302307666 
0.09308060928537336 
0.08149932802380308 
0.07613776717956415 
0.0749757687657395 
0.19516754644902723 
0.19516754644902723 
0.18507109690347817 
0.1749746473579291 
0.16169972346513098 
0.14842479957233287 
0.13495746875097842 
0.12149013792962393 
0.11097623302307666 
0.10046232811652937 
0.09308060928537336 
0.08569889045421734 
0.08149932802380308 
0.0772997655933888 
0.07613776717956415 
0.0749757687657395 
0.0749757687657395 
</DataArray>
</PointData>
<CellData>
</CellData>
<Points>
<DataArray type="Float64" Name="Points" NumberOfComponents="3" format="ascii">
0.0 0.0 0.0
0.5 0.0 0.0
1.0 0.0 0.0
1.5 0.0 0.0
2.0 0.0 0.0
2.5 0.0 0.0
3.0 0.0 0.0
3.5 0.0 0.0
4.0 0.0 0.0
4.5 0.0 0.0
5.0 0.0 0.0
5.5 0.0 0.0
6.0 0.0 0.0
6.5 0.0 0.0
7.0 0.0 0.0
7.5 0.0 0.0
8.0 0.0 0.0
0.0 0.25 0.0
1.0 0.25 0.0
2.0 0.25 0.0
3.0 0.25 0.0
4.0 0.25 0.0
5.0 0.25 0.0
6.0 0.25 0.0
7.0 0.25 0.0
8.0 0.25 0.0
0.0 0.5 0.0
0.5 0.5 0.0
1.0 0.5 0.0
1.5 0.5 0.0
2.0 0.5 0.0
2.5 0.5 0.0
3.0 0.5 0.0
3.5 0.5 0.0
4.0 0.5 0.0
4.5 0.5 0.0
5.0 0.5 0.0
5.5 0.5 0.0
6.0 0.5 0.0
6.5 0.5 0.0
7.0 0.5 0.0
7.5 0.5 0.0
8.0 0.5 0.0
</DataArray>
</Points>
<Cells>
<DataArray type="Int64" Name="connectivity" format="ascii">
0 2 28 26 
2 4 30 28 
4 6 32 30 
6 8 34 32 
8 10 36 34 
10 12 38 36 
12 14 40 38 
14 16 42 40 
</DataArray>
<DataArray type="Int64" Name="offsets" format="ascii">
8
16
24
32
40
48
56
64
</DataArray>
<DataArray type="UInt8" Name="types" format="ascii" RangeMin="9" RangeMax="9">
9
9
9
9
9
9
9
9
</DataArray>
</Cells>
</Piece>
</UnstructuredGrid>
</VTKFile>
