<?xml version="1.0"?>
<VTKFile type="UnstructuredGrid" version="0.1" byte_order="LittleEndian" compressor="vtkZLibDataCompressor">
<UnstructuredGrid>
<Piece NumberOfPoints="43" NumberOfCells="8">
<PointData>
<DataArray type="Float64" Name="displacement" NumberOfComponents="3" format="ascii" >
0.0 0.0  0.
0.0425946980517894 0.05898428811788438  0.
0.06278201464137162 0.21831099382690483  0.
0.04362892190775357 0.4608905771701918  0.
-0.021749862754457998 0.7709944532507826  0.
-0.13408725464769916 1.1307803274176091  0.
-0.29051380456453246 1.5285558227258862  0.
-0.48734775042777884 1.9523929969087377  0.
-0.7194261092863347 2.3961293087344777  0.
-0.9816778466786662 2.852688870578485  0.
-1.2687389740600385 3.3189099675780693  0.
-1.5758581768908573 3.790518212747245  0.
-1.89816183340801 4.266085857927061  0.
-2.2314761431948855 4.74274012636239  0.
-2.571297228978431 5.219849509016831  0.
-2.913868463397745 5.695529132661794  0.
-3.255068018241489 6.169069703112213  0.
0.0 0.0  0.
-0.02890575580134518 0.19532741804302736  0.
-0.1779555535576486 0.7124182578249063  0.
-0.4854026690621076 1.4315642614030186  0.
-0.9361817494968452 2.267680840061949  0.
-1.4973369263124336 3.1676804109419265  0.
-2.1327574150823168 4.100777269688795  0.
-2.808270753654401 5.048882254453489  0.
-3.491894508285067 5.999409482478389  0.
0.0 0.0  0.
-0.054714079333440455 0.048785347670911465  0.
-0.1226984414452893 0.18084014692450867  0.
-0.2146923118071016 0.3882212397775573  0.
-0.33754368785830735 0.6567701891521858  0.
-0.49337828137363254 0.9780553755233106  0.
-0.6830206570535816 1.3368424575027715  0.
-0.9045556718677862 1.7273108814445894  0.
-1.1550440345961495 2.1403023655167575  0.
-1.4305592937449225 2.5722053493944137  0.
-1.7273317392628624 3.017024407510688  0.
-2.041110996664241 3.472813193985389  0.
-2.3680948465568186 3.935791196249469  0.
-2.704081350024462 4.404935689586073  0.
-3.045433120514001 4.877692138861068  0.
-3.3879292447695204 5.353750590376512  0.
-3.728128179107989 5.830660569405315  0.
</DataArray>
<DataArray type="Float64" Name="sigma_xx" NumberOfComponents="1" format="ascii" >
-0.1183336466123895 
-0.1183336466123895 
-0.05653639297749698 
0.005260860657395542 
0.05603102078521591 
0.10680118091303627 
0.1313298845047571 
0.15585858809647796 
0.1706278834569161 
0.18539717881735424 
0.19281430601052446 
0.2002314332036947 
0.20294949728754627 
0.20566756137139786 
0.20932395801382092 
0.21298035465624396 
0.21298035465624396 
-0.1183336466123895 
-0.05653639297749698 
0.05603102078521591 
0.1313298845047571 
0.1706278834569161 
0.19281430601052446 
0.20294949728754627 
0.20932395801382092 
0.21298035465624396 
-0.1183336466123895 
-0.1183336466123895 
-0.05653639297749698 
0.005260860657395542 
0.05603102078521591 
0.10680118091303627 
0.1313298845047571 
0.15585858809647796 
0.1706278834569161 
0.18539717881735424 
0.19281430601052446 
0.2002314332036947 
0.20294949728754627 
0.20566756137139786 
0.20932395801382092 
0.21298035465624396 
0.21298035465624396 
</DataArray>
<DataArray type="Float64" Name="sigma_yy" NumberOfComponents="1" format="ascii" >
-0.17158086181119708 
-0.17158086181119708 
-0.1809814987049077 
-0.19038213559861833 
-0.1425873427566155 
-0.09479254991461265 
-0.07454024633471452 
-0.05428794275481639 
-0.03909163749263676 
-0.023895332230457145 
-0.016376727933924917 
-0.008858123637392688 
-0.006672807684489463 
-0.004487491731586238 
0.008112463439917677 
0.020712418611421594 
0.020712418611421594 
-0.17158086181119708 
-0.1809814987049077 
-0.1425873427566155 
-0.07454024633471452 
-0.03909163749263676 
-0.016376727933924917 
-0.006672807684489463 
0.008112463439917677 
0.020712418611421594 
-0.17158086181119708 
-0.17158086181119708 
-0.1809814987049077 
-0.19038213559861833 
-0.1425873427566155 
-0.09479254991461265 
-0.07454024633471452 
-0.05428794275481639 
-0.03909163749263676 
-0.023895332230457145 
-0.016376727933924917 
-0.008858123637392688 
-0.006672807684489463 
-0.004487491731586238 
0.008112463439917677 
0.020712418611421594 
0.020712418611421594 
</DataArray>
<DataArray type="Float64" Name="sigma_xy" NumberOfComponents="1" format="ascii" >
0.2373475219031036 
0.2373475219031036 
0.22262739823800404 
0.2079072745729045 
0.18912632617760586 
0.1703453777823072 
0.15227176007505253 
0.13419814236779784 
0.1206508303724233 
0.10710351837704875 
0.09798008548408885 
0.08885665259112895 
0.08395586937479486 
0.07905508615846078 
0.07807947665430634 
0.0771038671501519 
0.0771038671501519 
0.2373475219031036 
0.22262739823800404 
0.18912632617760586 
0.15227176007505253 
0.1206508303724233 
0.09798008548408885 
0.08395586937479486 
0.07807947665430634 
0.0771038671501519 
0.2373475219031036 
0.2373475219031036 
0.22262739823800404 
0.2079072745729045 
0.18912632617760586 
0.1703453777823072 
0.15227176007505253 
0.13419814236779784 
0.1206508303724233 
0.10710351837704875 
0.09798008548408885 
0.08885665259112895 
0.08395586937479486 
0.07905508615846078 
0.07807947665430634 
0.0771038671501519 
0.0771038671501519 
</DataArray>
</PointData>
<CellData>
</CellData>
<Points>
<DataArray type="Float64" Name="Points" NumberOfComponents="3" format="ascii">
0.0 0.0 0.0
0.5 0.0 0.0
1.0 0.0 0.0
1.5 0.0 0.0
2.0 0.0 0.0
2.5 0.0 0.0
3.0 0.0 0.0
3.5 0.0 0.0
4.0 0.0 0.0
4.5 0.0 0.0
5.0 0.0 0.0
5.5 0.0 0.0
6.0 0.0 0.0
6.5 0.0 0.0
7.0 0.0 0.0
7.5 0.0 0.0
8.0 0.0 0.0
0.0 0.25 0.0
1.0 0.25 0.0
2.0 0.25 0.0
3.0 0.25 0.0
4.0 0.25 0.0
5.0 0.25 0.0
6.0 0.25 0.0
7.0 0.25 0.0
8.0 0.25 0.0
0.0 0.5 0.0
0.5 0.5 0.0
1.0 0.5 0.0
1.5 0.5 0.0
2.0 0.5 0.0
2.5 0.5 0.0
3.0 0.5 0.0
3.5 0.5 0.0
4.0 0.5 0.0
4.5 0.5 0.0
5.0 0.5 0.0
5.5 0.5 0.0
6.0 0.5 0.0
6.5 0.5 0.0
7.0 0.5 0.0
7.5 0.5 0.0
8.0 0.5 0.0
</DataArray>
</Points>
<Cells>
<DataArray type="Int64" Name="connectivity" format="ascii">
0 2 28 26 
2 4 30 28 
4 6 32 30 
6 8 34 32 
8 10 36 34 
10 12 38 36 
12 14 40 38 
14 16 42 40 
</DataArray>
<DataArray type="Int64" Name="offsets" format="ascii">
8
16
24
32
40
48
56
64
</DataArray>
<DataArray type="UInt8" Name="types" format="ascii" RangeMin="9" RangeMax="9">
9
9
9
9
9
9
9
9
</DataArray>
</Cells>
</Piece>
</UnstructuredGrid>
</VTKFile>
