<?xml version="1.0"?>
<VTKFile type="UnstructuredGrid" version="0.1" byte_order="LittleEndian" compressor="vtkZLibDataCompressor">
<UnstructuredGrid>
<Piece NumberOfPoints="43" NumberOfCells="8">
<PointData>
<DataArray type="Float64" Name="displacement" NumberOfComponents="3" format="ascii" >
0.0 0.0  0.
0.04704474967483128 0.06781265443257208  0.
0.06537261970489541 0.24801739525593744  0.
0.03518196306109586 0.5183133146023737  0.
-0.050175580588280685 0.858626262484784  0.
-0.1896071341327583 1.2478328857552903  0.
-0.3783257396828543 1.6727420715634231  0.
-0.6106637418433489 2.1204359692735735  0.
-0.8800056577013218 2.584865908014661  0.
-1.1800453474699735 3.0590982410107572  0.
-1.504678140965064 3.540476167786889  0.
-1.848545272486474 4.025129934451463  0.
-2.206486666011521 4.512125214868103  0.
-2.574057934040084 4.998936288253312  0.
-2.9466536846438602 5.485329030481398  0.
-3.3203366185440086 5.969740943459448  0.
-3.6910132990342372 6.451673466783429  0.
0.0 0.0  0.
-0.03655214750463207 0.2198773370197848  0.
-0.21946979724104426 0.7881982729247611  0.
-0.5849035347823026 1.5593616323567006  0.
-1.1059318092744885 2.4383147135180723  0.
-1.740269221356557 3.3711745301344567  0.
-2.4465994409235434 4.329646856367404  0.
-3.188333548531692 5.298571581482485  0.
-3.932207413628348 6.267613898466585  0.
0.0 0.0  0.
-0.06255716686497616 0.054843094304903035  0.
-0.14111611556622428 0.20111578270697947  0.
-0.24869251000487771 0.4289240639256313  0.
-0.3926596280746846 0.7205190286298588  0.
-0.5747192003032052 1.066113709967338  0.
-0.7944329819938177 1.4480795470059653  0.
-1.0489281452077486 1.8601760718995675  0.
-1.3340084600174598 2.2926295692138443  0.
-1.6449580845075393 2.7419890603049755  0.
-1.9772074775261126 3.2023020286480115  0.
-2.326085698763569 3.6719557577584867  0.
-2.6873615526668493 4.1474294384607715  0.
-3.0566564780986583 4.628016055388326  0.
-3.4300949391100684 5.111463103842142  0.
-3.803352902460613 5.597844582780207  0.
-4.172646094641792 6.084821480580074  0.
</DataArray>
<DataArray type="Float64" Name="sigma_xx" NumberOfComponents="1" format="ascii" >
-0.1450558433426206 
-0.1450558433426206 
-0.057749625939366445 
0.029556591463887706 
0.09451611770882798 
0.15947564395376826 
0.18820735946138523 
0.2169390749690022 
0.23286246462396298 
0.24878585427892375 
0.25613545102399626 
0.2634850477690688 
0.2655761539486581 
0.26766726012824743 
0.2716913289981628 
0.27571539786807814 
0.27571539786807814 
-0.1450558433426206 
-0.057749625939366445 
0.09451611770882798 
0.18820735946138523 
0.23286246462396298 
0.25613545102399626 
0.2655761539486581 
0.2716913289981628 
0.27571539786807814 
-0.1450558433426206 
-0.1450558433426206 
-0.057749625939366445 
0.029556591463887706 
0.09451611770882798 
0.15947564395376826 
0.18820735946138523 
0.2169390749690022 
0.23286246462396298 
0.24878585427892375 
0.25613545102399626 
0.2634850477690688 
0.2655761539486581 
0.26766726012824743 
0.2716913289981628 
0.27571539786807814 
0.27571539786807814 
</DataArray>
<DataArray type="Float64" Name="sigma_yy" NumberOfComponents="1" format="ascii" >
-0.21491692230852763 
-0.21491692230852763 
-0.2211678382662982 
-0.2274187542240688 
-0.16630252507130994 
-0.1051862959185511 
-0.08097701900322185 
-0.0567677420878926 
-0.03990592585443908 
-0.02304410962098555 
-0.015321884100708203 
-0.007599658580430856 
-0.006423732881735444 
-0.005247807183040032 
0.008189018008286303 
0.021625843199612638 
0.021625843199612638 
-0.21491692230852763 
-0.2211678382662982 
-0.16630252507130994 
-0.08097701900322185 
-0.03990592585443908 
-0.015321884100708203 
-0.006423732881735444 
0.008189018008286303 
0.021625843199612638 
-0.21491692230852763 
-0.21491692230852763 
-0.2211678382662982 
-0.2274187542240688 
-0.16630252507130994 
-0.1051862959185511 
-0.08097701900322185 
-0.0567677420878926 
-0.03990592585443908 
-0.02304410962098555 
-0.015321884100708203 
-0.007599658580430856 
-0.006423732881735444 
-0.005247807183040032 
0.008189018008286303 
0.021625843199612638 
0.021625843199612638 
</DataArray>
<DataArray type="Float64" Name="sigma_xy" NumberOfComponents="1" format="ascii" >
0.3000528989758547 
0.3000528989758547 
0.2772008293293588 
0.2543487596828629 
0.22657011099517232 
0.19879146230748174 
0.17385133881855427 
0.1489112153296268 
0.13122240747888345 
0.11353359962814008 
0.10229228845126245 
0.09105097727438484 
0.08554761462442412 
0.08004425197446341 
0.07975084121210448 
0.07945743044974554 
0.07945743044974554 
0.3000528989758547 
0.2772008293293588 
0.22657011099517232 
0.17385133881855427 
0.13122240747888345 
0.10229228845126245 
0.08554761462442412 
0.07975084121210448 
0.07945743044974554 
0.3000528989758547 
0.3000528989758547 
0.2772008293293588 
0.2543487596828629 
0.22657011099517232 
0.19879146230748174 
0.17385133881855427 
0.1489112153296268 
0.13122240747888345 
0.11353359962814008 
0.10229228845126245 
0.09105097727438484 
0.08554761462442412 
0.08004425197446341 
0.07975084121210448 
0.07945743044974554 
0.07945743044974554 
</DataArray>
</PointData>
<CellData>
</CellData>
<Points>
<DataArray type="Float64" Name="Points" NumberOfComponents="3" format="ascii">
0.0 0.0 0.0
0.5 0.0 0.0
1.0 0.0 0.0
1.5 0.0 0.0
2.0 0.0 0.0
2.5 0.0 0.0
3.0 0.0 0.0
3.5 0.0 0.0
4.0 0.0 0.0
4.5 0.0 0.0
5.0 0.0 0.0
5.5 0.0 0.0
6.0 0.0 0.0
6.5 0.0 0.0
7.0 0.0 0.0
7.5 0.0 0.0
8.0 0.0 0.0
0.0 0.25 0.0
1.0 0.25 0.0
2.0 0.25 0.0
3.0 0.25 0.0
4.0 0.25 0.0
5.0 0.25 0.0
6.0 0.25 0.0
7.0 0.25 0.0
8.0 0.25 0.0
0.0 0.5 0.0
0.5 0.5 0.0
1.0 0.5 0.0
1.5 0.5 0.0
2.0 0.5 0.0
2.5 0.5 0.0
3.0 0.5 0.0
3.5 0.5 0.0
4.0 0.5 0.0
4.5 0.5 0.0
5.0 0.5 0.0
5.5 0.5 0.0
6.0 0.5 0.0
6.5 0.5 0.0
7.0 0.5 0.0
7.5 0.5 0.0
8.0 0.5 0.0
</DataArray>
</Points>
<Cells>
<DataArray type="Int64" Name="connectivity" format="ascii">
0 2 28 26 
2 4 30 28 
4 6 32 30 
6 8 34 32 
8 10 36 34 
10 12 38 36 
12 14 40 38 
14 16 42 40 
</DataArray>
<DataArray type="Int64" Name="offsets" format="ascii">
8
16
24
32
40
48
56
64
</DataArray>
<DataArray type="UInt8" Name="types" format="ascii" RangeMin="9" RangeMax="9">
9
9
9
9
9
9
9
9
</DataArray>
</Cells>
</Piece>
</UnstructuredGrid>
</VTKFile>
