<?xml version="1.0"?>
<VTKFile type="UnstructuredGrid" version="0.1" byte_order="LittleEndian" compressor="vtkZLibDataCompressor">
<UnstructuredGrid>
<Piece NumberOfPoints="43" NumberOfCells="8">
<PointData>
<DataArray type="Float64" Name="displacement" NumberOfComponents="3" format="ascii" >
0.0 0.0  0.
0.048331054419470915 0.0705267474632654  0.
0.06590303740256183 0.256977715341548  0.
0.032109200811747084 0.5353309430837551  0.
-0.0594923110494717 0.884145285439021  0.
-0.20712922735581693 1.281348432554885  0.
-0.4053681808310271 1.7133755989824366  0.
-0.6479149122733604 2.1671001767187095  0.
-0.927728804550962 2.636575907504831  0.
-1.2381645775513668 3.1149680456654627  0.
-1.5729320299201501 3.5997965225025794  0.
-1.9265315450574931 4.087332746334082  0.
-2.29375026817967 4.576787701977318  0.
-2.6700943596905944 5.065737571497311  0.
-3.0509487760839957 5.554053412121719  0.
-3.4323394350093364 6.040259853407312  0.
-3.8101917587908676 6.5238997304837385  0.
0.0 0.0  0.
-0.03900826495707481 0.22721640692372583  0.
-0.2323959442824286 0.8101383989148163  0.
-0.6149722987221212 1.5952592616572256  0.
-1.1558829953111216 2.485007200724945  0.
-1.810126005510601 3.425669899811527  0.
-2.5350705296023737 4.389876045047739  0.
-3.293630230651019 5.3633530069490565  0.
-4.052297401279107 6.3363614574746485  0.
0.0 0.0  0.
-0.06494946458872933 0.05666135789523516  0.
-0.14672765543955427 0.20708559603570578  0.
-0.25903506421978106 0.4407592576825365  0.
-0.40933566588384984 0.7388062719772309  0.
-0.5991434581565945 1.0910487739864014  0.
-0.827575902977179 1.4791829205497364  0.
-1.0914483093735508 1.896881231933276  0.
-1.3861842166797407 2.334244368608117  0.
-1.7068427863446827 2.7878962035856523  0.
-2.0486408751345664 3.251932827424995  0.
-2.4068052105618145 3.724847873660913  0.
-2.7770055047550306 4.203211284610334  0.
-3.1548309062299165 4.686403469884825  0.
-3.5363565072732133 5.1722625767507  0.
-3.9172385177452673 5.6609688492706045  0.
-4.293595866884729 6.15020796319502  0.
</DataArray>
<DataArray type="Float64" Name="sigma_xx" NumberOfComponents="1" format="ascii" >
-0.15324437741548072 
-0.15324437741548072 
-0.05708709113538192 
0.039070195144716886 
0.10848676797805959 
0.1779033408114023 
0.20776095697531569 
0.23761857313922907 
0.25375447544509805 
0.269890377750967 
0.27714518349581585 
0.2843999892406646 
0.28626138190750244 
0.28812277457434027 
0.2922617573668938 
0.29640074015944734 
0.29640074015944734 
-0.15324437741548072 
-0.05708709113538192 
0.10848676797805959 
0.20776095697531569 
0.25375447544509805 
0.27714518349581585 
0.28626138190750244 
0.2922617573668938 
0.29640074015944734 
-0.15324437741548072 
-0.15324437741548072 
-0.05708709113538192 
0.039070195144716886 
0.10848676797805959 
0.1779033408114023 
0.20776095697531569 
0.23761857313922907 
0.25375447544509805 
0.269890377750967 
0.27714518349581585 
0.2843999892406646 
0.28626138190750244 
0.28812277457434027 
0.2922617573668938 
0.29640074015944734 
0.29640074015944734 
</DataArray>
<DataArray type="Float64" Name="sigma_yy" NumberOfComponents="1" format="ascii" >
-0.22870709743295334 
-0.22870709743295334 
-0.2335828268358251 
-0.23845855623869683 
-0.17310825776482702 
-0.10775795929095723 
-0.08242804192809827 
-0.05709812456523933 
-0.03984111699605175 
-0.022584109426864167 
-0.014867172424751744 
-0.0071502354226393216 
-0.006333930227420333 
-0.005517625032201345 
0.008198220663878793 
0.02191406635995893 
0.02191406635995893 
-0.22870709743295334 
-0.2335828268358251 
-0.17310825776482702 
-0.08242804192809827 
-0.03984111699605175 
-0.014867172424751744 
-0.006333930227420333 
0.008198220663878793 
0.02191406635995893 
-0.22870709743295334 
-0.22870709743295334 
-0.2335828268358251 
-0.23845855623869683 
-0.17310825776482702 
-0.10775795929095723 
-0.08242804192809827 
-0.05709812456523933 
-0.03984111699605175 
-0.022584109426864167 
-0.014867172424751744 
-0.0071502354226393216 
-0.006333930227420333 
-0.005517625032201345 
0.008198220663878793 
0.02191406635995893 
0.02191406635995893 
</DataArray>
<DataArray type="Float64" Name="sigma_xy" NumberOfComponents="1" format="ascii" >
0.32081355522645705 
0.32081355522645705 
0.2949622979881228 
0.2691110407497885 
0.23819037956174827 
0.20726971837370803 
0.18008802668768656 
0.1529063350016651 
0.1339548554836436 
0.11500337596562213 
0.10317997014490031 
0.09135656432417849 
0.08575905210602403 
0.08016153988786957 
0.08019244968032418 
0.08022335947277881 
0.08022335947277881 
0.32081355522645705 
0.2949622979881228 
0.23819037956174827 
0.18008802668768656 
0.1339548554836436 
0.10317997014490031 
0.08575905210602403 
0.08019244968032418 
0.08022335947277881 
0.32081355522645705 
0.32081355522645705 
0.2949622979881228 
0.2691110407497885 
0.23819037956174827 
0.20726971837370803 
0.18008802668768656 
0.1529063350016651 
0.1339548554836436 
0.11500337596562213 
0.10317997014490031 
0.09135656432417849 
0.08575905210602403 
0.08016153988786957 
0.08019244968032418 
0.08022335947277881 
0.08022335947277881 
</DataArray>
</PointData>
<CellData>
</CellData>
<Points>
<DataArray type="Float64" Name="Points" NumberOfComponents="3" format="ascii">
0.0 0.0 0.0
0.5 0.0 0.0
1.0 0.0 0.0
1.5 0.0 0.0
2.0 0.0 0.0
2.5 0.0 0.0
3.0 0.0 0.0
3.5 0.0 0.0
4.0 0.0 0.0
4.5 0.0 0.0
5.0 0.0 0.0
5.5 0.0 0.0
6.0 0.0 0.0
6.5 0.0 0.0
7.0 0.0 0.0
7.5 0.0 0.0
8.0 0.0 0.0
0.0 0.25 0.0
1.0 0.25 0.0
2.0 0.25 0.0
3.0 0.25 0.0
4.0 0.25 0.0
5.0 0.25 0.0
6.0 0.25 0.0
7.0 0.25 0.0
8.0 0.25 0.0
0.0 0.5 0.0
0.5 0.5 0.0
1.0 0.5 0.0
1.5 0.5 0.0
2.0 0.5 0.0
2.5 0.5 0.0
3.0 0.5 0.0
3.5 0.5 0.0
4.0 0.5 0.0
4.5 0.5 0.0
5.0 0.5 0.0
5.5 0.5 0.0
6.0 0.5 0.0
6.5 0.5 0.0
7.0 0.5 0.0
7.5 0.5 0.0
8.0 0.5 0.0
</DataArray>
</Points>
<Cells>
<DataArray type="Int64" Name="connectivity" format="ascii">
0 2 28 26 
2 4 30 28 
4 6 32 30 
6 8 34 32 
8 10 36 34 
10 12 38 36 
12 14 40 38 
14 16 42 40 
</DataArray>
<DataArray type="Int64" Name="offsets" format="ascii">
8
16
24
32
40
48
56
64
</DataArray>
<DataArray type="UInt8" Name="types" format="ascii" RangeMin="9" RangeMax="9">
9
9
9
9
9
9
9
9
</DataArray>
</Cells>
</Piece>
</UnstructuredGrid>
</VTKFile>
