<?xml version="1.0"?>
<VTKFile type="UnstructuredGrid" version="0.1" byte_order="LittleEndian" compressor="vtkZLibDataCompressor">
<UnstructuredGrid>
<Piece NumberOfPoints="43" NumberOfCells="8">
<PointData>
<DataArray type="Float64" Name="displacement" NumberOfComponents="3" format="ascii" >
0.0 0.0  0.
0.04419128081888787 0.06205770448146696  0.
0.06383971946062904 0.22875076400474204  0.
0.04097427698296487 0.48124602797951693  0.
-0.031283396800287945 0.8023260786917009  0.
-0.15310098876133593 1.1729775633410975  0.
-0.3209792992328214 1.5809392835729439  0.
-0.5305601325279057 2.0138838206066025  0.
-0.7761667557349033 2.465647292264637  0.
-1.0522776260958104 2.929168283767366  0.
-1.3532475647442164 3.401445260141747  0.
-1.674087206572268 3.8783318620501652  0.
-2.009801732346688 4.358573704531922  0.
-2.35610202038873 4.839419566503601  0.
-2.7084343368703947 5.320385257488552  0.
-3.0629660933680736 5.799703840008524  0.
-3.415576789765349 6.276752857950741  0.
0.0 0.0  0.
-0.03150499520371651 0.20399471453535908  0.
-0.19229180045755928 0.7395940626888409  0.
-0.5202846756529856 1.4780755455565826  0.
-0.9964879162382728 2.3305811208564595  0.
-1.5846344844649332 3.2434920975174  0.
-2.2466414941280775 4.186779446271907  0.
-2.9473449909969016 5.143367298200108  0.
-3.6542138606118195 6.101502380779311  0.
0.0 0.0  0.
-0.05745548693299899 0.05092010852674221  0.
-0.12913764901244887 0.1880532012106211  0.
-0.2265858149493548 0.4027901813168386  0.
-0.35687081042905455 0.6797395360060442  0.
-0.5220050051284808 1.0099850163867257  0.
-0.7224088309762962 1.3774262664279084  0.
-0.9558467028441751 1.7760723858269367  0.
-1.2189415773359809 2.1965132252535113  0.
-1.507483882509184 2.63517679180106  0.
-1.8174081912127384 3.0860597589823513  0.
-2.144302268988805 3.5473281514408144  0.
-2.484195147427032 4.015283499365705  0.
-2.8328095017799964 4.489017797102729  0.
-3.186409680246637 4.966081601547745  0.
-3.540729871413212 5.446305412193567  0.
-3.8922023770490184 5.927282096537293  0.
</DataArray>
<DataArray type="Float64" Name="sigma_xx" NumberOfComponents="1" format="ascii" >
-0.12762808431827682 
-0.12762808431827682 
-0.05752126620435898 
0.012585551909558863 
0.06822362296827718 
0.1238616940269955 
0.1499433605196505 
0.17602502701230546 
0.19128155335577804 
0.20653807969925062 
0.21398012968899563 
0.22142217967874064 
0.22394763234401766 
0.22647308500929464 
0.23025797059792752 
0.2340428561865604 
0.2340428561865604 
-0.12762808431827682 
-0.05752126620435898 
0.06822362296827718 
0.1499433605196505 
0.19128155335577804 
0.21398012968899563 
0.22394763234401766 
0.23025797059792752 
0.2340428561865604 
-0.12762808431827682 
-0.12762808431827682 
-0.05752126620435898 
0.012585551909558863 
0.06822362296827718 
0.1238616940269955 
0.1499433605196505 
0.17602502701230546 
0.19128155335577804 
0.20653807969925062 
0.21398012968899563 
0.22142217967874064 
0.22394763234401766 
0.22647308500929464 
0.23025797059792752 
0.2340428561865604 
0.2340428561865604 
</DataArray>
<DataArray type="Float64" Name="sigma_yy" NumberOfComponents="1" format="ascii" >
-0.1863850412101547 
-0.1863850412101547 
-0.19491803764760585 
-0.203451034085057 
-0.15110850607291934 
-0.09876597806078169 
-0.07708515763892304 
-0.05540433721706439 
-0.03955861509102592 
-0.023712892964987454 
-0.016079716090847424 
-0.008446539216707395 
-0.0065798651987901795 
-0.004713191180872964 
0.008172181808386435 
0.021057554797645834 
0.021057554797645834 
-0.1863850412101547 
-0.19491803764760585 
-0.15110850607291934 
-0.07708515763892304 
-0.03955861509102592 
-0.016079716090847424 
-0.0065798651987901795 
0.008172181808386435 
0.021057554797645834 
-0.1863850412101547 
-0.1863850412101547 
-0.19491803764760585 
-0.203451034085057 
-0.15110850607291934 
-0.09876597806078169 
-0.07708515763892304 
-0.05540433721706439 
-0.03955861509102592 
-0.023712892964987454 
-0.016079716090847424 
-0.008446539216707395 
-0.0065798651987901795 
-0.004713191180872964 
0.008172181808386435 
0.021057554797645834 
0.021057554797645834 
</DataArray>
<DataArray type="Float64" Name="sigma_xy" NumberOfComponents="1" format="ascii" >
0.2583219334424017 
0.2583219334424017 
0.24104244022531066 
0.22376294700821964 
0.20206606911631786 
0.1803691912244161 
0.159990173197821 
0.13961115517122585 
0.12462533246265696 
0.10963950975408807 
0.09974553813160594 
0.08985156650912383 
0.0846931122943127 
0.07953465807950158 
0.07873539597001364 
0.07793613386052571 
0.07793613386052571 
0.2583219334424017 
0.24104244022531066 
0.20206606911631786 
0.159990173197821 
0.12462533246265696 
0.09974553813160594 
0.0846931122943127 
0.07873539597001364 
0.07793613386052571 
0.2583219334424017 
0.2583219334424017 
0.24104244022531066 
0.22376294700821964 
0.20206606911631786 
0.1803691912244161 
0.159990173197821 
0.13961115517122585 
0.12462533246265696 
0.10963950975408807 
0.09974553813160594 
0.08985156650912383 
0.0846931122943127 
0.07953465807950158 
0.07873539597001364 
0.07793613386052571 
0.07793613386052571 
</DataArray>
</PointData>
<CellData>
</CellData>
<Points>
<DataArray type="Float64" Name="Points" NumberOfComponents="3" format="ascii">
0.0 0.0 0.0
0.5 0.0 0.0
1.0 0.0 0.0
1.5 0.0 0.0
2.0 0.0 0.0
2.5 0.0 0.0
3.0 0.0 0.0
3.5 0.0 0.0
4.0 0.0 0.0
4.5 0.0 0.0
5.0 0.0 0.0
5.5 0.0 0.0
6.0 0.0 0.0
6.5 0.0 0.0
7.0 0.0 0.0
7.5 0.0 0.0
8.0 0.0 0.0
0.0 0.25 0.0
1.0 0.25 0.0
2.0 0.25 0.0
3.0 0.25 0.0
4.0 0.25 0.0
5.0 0.25 0.0
6.0 0.25 0.0
7.0 0.25 0.0
8.0 0.25 0.0
0.0 0.5 0.0
0.5 0.5 0.0
1.0 0.5 0.0
1.5 0.5 0.0
2.0 0.5 0.0
2.5 0.5 0.0
3.0 0.5 0.0
3.5 0.5 0.0
4.0 0.5 0.0
4.5 0.5 0.0
5.0 0.5 0.0
5.5 0.5 0.0
6.0 0.5 0.0
6.5 0.5 0.0
7.0 0.5 0.0
7.5 0.5 0.0
8.0 0.5 0.0
</DataArray>
</Points>
<Cells>
<DataArray type="Int64" Name="connectivity" format="ascii">
0 2 28 26 
2 4 30 28 
4 6 32 30 
6 8 34 32 
8 10 36 34 
10 12 38 36 
12 14 40 38 
14 16 42 40 
</DataArray>
<DataArray type="Int64" Name="offsets" format="ascii">
8
16
24
32
40
48
56
64
</DataArray>
<DataArray type="UInt8" Name="types" format="ascii" RangeMin="9" RangeMax="9">
9
9
9
9
9
9
9
9
</DataArray>
</Cells>
</Piece>
</UnstructuredGrid>
</VTKFile>
