<?xml version="1.0"?>
<VTKFile type="UnstructuredGrid" version="0.1" byte_order="LittleEndian" compressor="vtkZLibDataCompressor">
<UnstructuredGrid>
<Piece NumberOfPoints="43" NumberOfCells="8">
<PointData>
<DataArray type="Float64" Name="displacement" NumberOfComponents="3" format="ascii" >
0.0 0.0  0.
0.02871968002254827 0.03575939612179278  0.
0.0485942991074039 0.13602056807227927  0.
0.05117360203199844 0.2940680273636775  0.
0.03182086546019533 0.503716126966911  0.
-0.01183185622419717 0.7561049150434603  0.
-0.07978108977113235 1.0448449480801083  0.
-0.17212330783391033 1.3626828135660942  0.
-0.2871651172645408 1.7050081941219226  0.
-0.42336035470669015 2.0662281818055823  0.
-0.5779916623324645 2.442962924631218  0.
-0.7488669073242098 2.8309524619481774  0.
-0.9328567977521868 3.2278246785243736  0.
-1.1275383082304329 3.630216962456786  0.
-1.3295928165862922 4.036352176212604  0.
-1.5365870936897146 4.443596881219345  0.
-1.7451333684666688 4.850274612846284  0.
0.0 0.0  0.
-0.011946311668265973 0.125253418027593  0.
-0.07800136517292919 0.4761228657546678  0.
-0.22534169484646166 0.9960657454128203  0.
-0.4576242760943039 1.6362509473043514  0.
-0.7649250677315548 2.3576978344979325  0.
-1.1298820898544508 3.130853623152898  0.
-1.531709203009009 3.9331561099515144  0.
-1.9482969861653952 4.746195252179485  0.
0.0 0.0  0.
-0.03359079916548113 0.031599855179306864  0.
-0.07336755614217032 0.1201682306588191  0.
-0.1240333779201121 0.26205714060408786  0.
-0.18955067532775347 0.45126994970544526  0.
-0.2716409017794774 0.6831446761649469  0.
-0.3725247930965688 0.9496132473051161  0.
-0.49188741308254275 1.2468641647373788  0.
-0.6295318301776438 1.568954445876612  0.
-0.783646260214294 1.9127292448798225  0.
-0.9529557309632828 2.2733791237550753  0.
-1.1349062790804034 2.6485200146592986  0.
-1.327604273375791 3.034433543648778  0.
-1.5280708561316028 3.429285371687848  0.
-1.7341202524979864 3.8300640968966473  0.
-1.9425224439593674 4.235308661843435  0.
-2.151263099683601 4.642354903317462  0.
</DataArray>
<DataArray type="Float64" Name="sigma_xx" NumberOfComponents="1" format="ascii" >
-0.05218654307496464 
-0.05218654307496464 
-0.03403994470750844 
-0.01589334634005225 
0.003416078399594163 
0.022725503139240575 
0.034123453584194406 
0.045521404029148234 
0.05400099044411766 
0.06248057685908708 
0.06769364073632389 
0.07290670461356069 
0.07570936330393407 
0.07851202199430747 
0.0809180703650276 
0.08332411873574773 
0.08332411873574773 
-0.05218654307496464 
-0.03403994470750844 
0.003416078399594163 
0.034123453584194406 
0.05400099044411766 
0.06769364073632389 
0.07570936330393407 
0.0809180703650276 
0.08332411873574773 
-0.05218654307496464 
-0.05218654307496464 
-0.03403994470750844 
-0.01589334634005225 
0.003416078399594163 
0.022725503139240575 
0.034123453584194406 
0.045521404029148234 
0.05400099044411766 
0.06248057685908708 
0.06769364073632389 
0.07290670461356069 
0.07570936330393407 
0.07851202199430747 
0.0809180703650276 
0.08332411873574773 
0.08332411873574773 
</DataArray>
<DataArray type="Float64" Name="sigma_yy" NumberOfComponents="1" format="ascii" >
-0.0726748533679228 
-0.0726748533679228 
-0.08138930840269792 
-0.09010376343747305 
-0.07155526945527792 
-0.053006775473082794 
-0.04396479248290143 
-0.03492280949272006 
-0.026611168509828302 
-0.018299527526936546 
-0.013344465725412718 
-0.00838940392388889 
-0.005419313861770581 
-0.002449223799652274 
0.007239087215181065 
0.016927398230014403 
0.016927398230014403 
-0.0726748533679228 
-0.08138930840269792 
-0.07155526945527792 
-0.04396479248290143 
-0.026611168509828302 
-0.013344465725412718 
-0.005419313861770581 
0.007239087215181065 
0.016927398230014403 
-0.0726748533679228 
-0.0726748533679228 
-0.08138930840269792 
-0.09010376343747305 
-0.07155526945527792 
-0.053006775473082794 
-0.04396479248290143 
-0.03492280949272006 
-0.026611168509828302 
-0.018299527526936546 
-0.013344465725412718 
-0.00838940392388889 
-0.005419313861770581 
-0.002449223799652274 
0.007239087215181065 
0.016927398230014403 
0.016927398230014403 
</DataArray>
<DataArray type="Float64" Name="sigma_xy" NumberOfComponents="1" format="ascii" >
0.10975179472536396 
0.10975179472536396 
0.1066082183351484 
0.10346464194493284 
0.09924019081127289 
0.09501573967761295 
0.09012677350057754 
0.08523780732354214 
0.08105307926764008 
0.07686835121173803 
0.07363846912474761 
0.07040858703775721 
0.06835318346755068 
0.06629777989734413 
0.06547327525446522 
0.06464877061158632 
0.06464877061158632 
0.10975179472536396 
0.1066082183351484 
0.09924019081127289 
0.09012677350057754 
0.08105307926764008 
0.07363846912474761 
0.06835318346755068 
0.06547327525446522 
0.06464877061158632 
0.10975179472536396 
0.10975179472536396 
0.1066082183351484 
0.10346464194493284 
0.09924019081127289 
0.09501573967761295 
0.09012677350057754 
0.08523780732354214 
0.08105307926764008 
0.07686835121173803 
0.07363846912474761 
0.07040858703775721 
0.06835318346755068 
0.06629777989734413 
0.06547327525446522 
0.06464877061158632 
0.06464877061158632 
</DataArray>
</PointData>
<CellData>
</CellData>
<Points>
<DataArray type="Float64" Name="Points" NumberOfComponents="3" format="ascii">
0.0 0.0 0.0
0.5 0.0 0.0
1.0 0.0 0.0
1.5 0.0 0.0
2.0 0.0 0.0
2.5 0.0 0.0
3.0 0.0 0.0
3.5 0.0 0.0
4.0 0.0 0.0
4.5 0.0 0.0
5.0 0.0 0.0
5.5 0.0 0.0
6.0 0.0 0.0
6.5 0.0 0.0
7.0 0.0 0.0
7.5 0.0 0.0
8.0 0.0 0.0
0.0 0.25 0.0
1.0 0.25 0.0
2.0 0.25 0.0
3.0 0.25 0.0
4.0 0.25 0.0
5.0 0.25 0.0
6.0 0.25 0.0
7.0 0.25 0.0
8.0 0.25 0.0
0.0 0.5 0.0
0.5 0.5 0.0
1.0 0.5 0.0
1.5 0.5 0.0
2.0 0.5 0.0
2.5 0.5 0.0
3.0 0.5 0.0
3.5 0.5 0.0
4.0 0.5 0.0
4.5 0.5 0.0
5.0 0.5 0.0
5.5 0.5 0.0
6.0 0.5 0.0
6.5 0.5 0.0
7.0 0.5 0.0
7.5 0.5 0.0
8.0 0.5 0.0
</DataArray>
</Points>
<Cells>
<DataArray type="Int64" Name="connectivity" format="ascii">
0 2 28 26 
2 4 30 28 
4 6 32 30 
6 8 34 32 
8 10 36 34 
10 12 38 36 
12 14 40 38 
14 16 42 40 
</DataArray>
<DataArray type="Int64" Name="offsets" format="ascii">
8
16
24
32
40
48
56
64
</DataArray>
<DataArray type="UInt8" Name="types" format="ascii" RangeMin="9" RangeMax="9">
9
9
9
9
9
9
9
9
</DataArray>
</Cells>
</Piece>
</UnstructuredGrid>
</VTKFile>
