<?xml version="1.0"?>
<VTKFile type="UnstructuredGrid" version="0.1" byte_order="LittleEndian" compressor="vtkZLibDataCompressor">
<UnstructuredGrid>
<Piece NumberOfPoints="43" NumberOfCells="8">
<PointData>
<DataArray type="Float64" Name="displacement" NumberOfComponents="3" format="ascii" >
0.0 0.0  0.
0.05373670591550328 0.08288787406144814  0.
0.06689211247580011 0.29679169540881273  0.
0.015746232123926934 0.609249702361757  0.
-0.10443689674529759 0.992585207337434  0.
-0.28821403796061995 1.420871766932685  0.
-0.5270307393048025 1.879384504991313  0.
-0.811790978398891 2.3545601833419076  0.
-1.1337325238477423 2.841222800529371  0.
-1.4849455935362792 3.3332062631926673  0.
-1.8585399878024447 3.8288757836664855  0.
-2.248613464020116 4.325166890899007  0.
-2.6498749180572103 4.821874450763987  0.
-3.057746280710301 5.316973054141008  0.
-3.467637639709818 5.810708309874372  0.
-3.8754561173844353 6.301914941191615  0.
-4.277206052311954 6.790201545641366  0.
0.0 0.0  0.
-0.05073716830560215 0.259492346902029  0.
-0.291656845737741 0.9028085982355178  0.
-0.7477528093891251 1.7415187374520722  0.
-1.369485288287356 2.6697655987885005  0.
-2.1008518896324864 3.636469795343915  0.
-2.894862451733237 4.618850352294839  0.
-3.7132739165790443 5.606326994956421  0.
-4.52191554122062 6.591239749690545  0.
0.0 0.0  0.
-0.07574289066292467 0.06470710726459486  0.
-0.17196164486252982 0.23286488185784557  0.
-0.30537362797857037 0.49107702449724755  0.
-0.48344768612159855 0.8152892777900876  0.
-0.7065635748383506 1.193734095877208  0.
-0.9715894763177096 1.6054206588082651  0.
-1.2738991458868518 2.0438501507021045  0.
-1.6072970916625193 2.498868123856699  0.
-1.9659574206038561 2.967535161915173  0.
-2.3443256190324164 3.4443039988094717  0.
-2.737309299405065 3.9281377265618787  0.
-3.140288949679372 4.416035250935316  0.
-3.5487981138148226 4.907710575481744  0.
-3.958776943730847 5.4013786603637755  0.
-4.365807922777495 5.897645474184666  0.
-4.765568602693902 6.394238675018396  0.
</DataArray>
<DataArray type="Float64" Name="sigma_xx" NumberOfComponents="1" format="ascii" >
-0.18977787317143305 
-0.18977787317143305 
-0.047461373646534855 
0.09485512587836334 
0.18458142220922147 
0.2743077185400796 
0.30819183464874234 
0.3420759507574051 
0.3584557714149602 
0.37483559207251527 
0.3813664725284972 
0.3878973529844792 
0.38859445156605366 
0.38929155014762806 
0.3939903027011675 
0.39868905525470705 
0.39868905525470705 
-0.18977787317143305 
-0.047461373646534855 
0.18458142220922147 
0.30819183464874234 
0.3584557714149602 
0.3813664725284972 
0.38859445156605366 
0.3939903027011675 
0.39868905525470705 
-0.18977787317143305 
-0.18977787317143305 
-0.047461373646534855 
0.09485512587836334 
0.18458142220922147 
0.2743077185400796 
0.30819183464874234 
0.3420759507574051 
0.3584557714149602 
0.37483559207251527 
0.3813664725284972 
0.3878973529844792 
0.38859445156605366 
0.38929155014762806 
0.3939903027011675 
0.39868905525470705 
0.39868905525470705 
</DataArray>
<DataArray type="Float64" Name="sigma_yy" NumberOfComponents="1" format="ascii" >
-0.29383633721030605 
-0.29383633721030605 
-0.29009474804864666 
-0.28635315888698726 
-0.20125856678963985 
-0.11616397469229245 
-0.08641044989106789 
-0.05665692508984331 
-0.03822078777475917 
-0.01978465045967504 
-0.012380297597471097 
-0.0049759447352671566 
-0.005982588666203723 
-0.006989232597140288 
0.008277331738141488 
0.023543896073423266 
0.023543896073423266 
-0.29383633721030605 
-0.29009474804864666 
-0.20125856678963985 
-0.08641044989106789 
-0.03822078777475917 
-0.012380297597471097 
-0.005982588666203723 
0.008277331738141488 
0.023543896073423266 
-0.29383633721030605 
-0.29383633721030605 
-0.29009474804864666 
-0.28635315888698726 
-0.20125856678963985 
-0.11616397469229245 
-0.08641044989106789 
-0.05665692508984331 
-0.03822078777475917 
-0.01978465045967504 
-0.012380297597471097 
-0.0049759447352671566 
-0.005982588666203723 
-0.006989232597140288 
0.008277331738141488 
0.023543896073423266 
0.023543896073423266 
</DataArray>
<DataArray type="Float64" Name="sigma_xy" NumberOfComponents="1" format="ascii" >
0.42363141241578905 
0.42363141241578905 
0.38088700008992604 
0.3381425877640631 
0.29085150008360117 
0.24356041240313922 
0.20571605243083474 
0.16787169245853026 
0.1434593004057264 
0.11904690835292253 
0.10510306243124862 
0.09115921650957472 
0.08574212138473482 
0.08032502625989492 
0.08259951076952417 
0.08487399527915342 
0.08487399527915342 
0.42363141241578905 
0.38088700008992604 
0.29085150008360117 
0.20571605243083474 
0.1434593004057264 
0.10510306243124862 
0.08574212138473482 
0.08259951076952417 
0.08487399527915342 
0.42363141241578905 
0.42363141241578905 
0.38088700008992604 
0.3381425877640631 
0.29085150008360117 
0.24356041240313922 
0.20571605243083474 
0.16787169245853026 
0.1434593004057264 
0.11904690835292253 
0.10510306243124862 
0.09115921650957472 
0.08574212138473482 
0.08032502625989492 
0.08259951076952417 
0.08487399527915342 
0.08487399527915342 
</DataArray>
</PointData>
<CellData>
</CellData>
<Points>
<DataArray type="Float64" Name="Points" NumberOfComponents="3" format="ascii">
0.0 0.0 0.0
0.5 0.0 0.0
1.0 0.0 0.0
1.5 0.0 0.0
2.0 0.0 0.0
2.5 0.0 0.0
3.0 0.0 0.0
3.5 0.0 0.0
4.0 0.0 0.0
4.5 0.0 0.0
5.0 0.0 0.0
5.5 0.0 0.0
6.0 0.0 0.0
6.5 0.0 0.0
7.0 0.0 0.0
7.5 0.0 0.0
8.0 0.0 0.0
0.0 0.25 0.0
1.0 0.25 0.0
2.0 0.25 0.0
3.0 0.25 0.0
4.0 0.25 0.0
5.0 0.25 0.0
6.0 0.25 0.0
7.0 0.25 0.0
8.0 0.25 0.0
0.0 0.5 0.0
0.5 0.5 0.0
1.0 0.5 0.0
1.5 0.5 0.0
2.0 0.5 0.0
2.5 0.5 0.0
3.0 0.5 0.0
3.5 0.5 0.0
4.0 0.5 0.0
4.5 0.5 0.0
5.0 0.5 0.0
5.5 0.5 0.0
6.0 0.5 0.0
6.5 0.5 0.0
7.0 0.5 0.0
7.5 0.5 0.0
8.0 0.5 0.0
</DataArray>
</Points>
<Cells>
<DataArray type="Int64" Name="connectivity" format="ascii">
0 2 28 26 
2 4 30 28 
4 6 32 30 
6 8 34 32 
8 10 36 34 
10 12 38 36 
12 14 40 38 
14 16 42 40 
</DataArray>
<DataArray type="Int64" Name="offsets" format="ascii">
8
16
24
32
40
48
56
64
</DataArray>
<DataArray type="UInt8" Name="types" format="ascii" RangeMin="9" RangeMax="9">
9
9
9
9
9
9
9
9
</DataArray>
</Cells>
</Piece>
</UnstructuredGrid>
</VTKFile>
