<?xml version="1.0"?>
<VTKFile type="UnstructuredGrid" version="0.1" byte_order="LittleEndian" compressor="vtkZLibDataCompressor">
<UnstructuredGrid>
<Piece NumberOfPoints="43" NumberOfCells="8">
<PointData>
<DataArray type="Float64" Name="displacement" NumberOfComponents="3" format="ascii" >
0.0 0.0  0.
0.020625872542454193 0.024387466067314484  0.
0.03701264458880057 0.09368704068749725  0.
0.0445430495350056 0.20435943188785413  0.
0.040549949412884666 0.35325924154819066  0.
0.023307007358002882 0.535269287082475  0.
-0.007316010488594024 0.7465324203708915  0.
-0.051980290434722236 0.9825733431324513  0.
-0.10995149596666445 1.2402643795491735  0.
-0.1808770872366964 1.515723518368173  0.
-0.26327328838506986 1.8062757390010704  0.
-0.3562552482690429 2.1086134382519957  0.
-0.4579257946501565 2.4205211216396285  0.
-0.567099483256003 2.7391213071056613  0.
-0.6816264536866269 3.0624822377704377  0.
-0.8002011070408903 3.3881507465296403  0.
-0.9205106895728401 3.7141924365144585  0.
0.0 0.0  0.
-0.005872560365422465 0.08773991041804469  0.
-0.03918323211743377 0.3387692432359467  0.
-0.11574633585473909 0.7204645963196028  0.
-0.240063083389399 1.2026934520762718  0.
-0.4088992184294904 1.758687677926243  0.
-0.6137765298102587 2.3654645472052542  0.
-0.8430574380837014 3.003165318694163  0.
-1.0834014088729105 3.654005866182822  0.
0.0 0.0  0.
-0.02299612877489592 0.02235282163689776  0.
-0.049191173146100865 0.08582859416313768  0.
-0.08075038791858707 0.18825640534308488  0.
-0.11983179167219084 0.32645990541711467  0.
-0.16736054910510478 0.497412937450946  0.
-0.22508746767519255 0.6963391142513455  0.
-0.29285851539007873 0.9206357132021418  0.
-0.3710371087033858 1.1664735246534221  0.
-0.4585965744782616 1.4314237483277858  0.
-0.5552134980088601 1.712042580810152  0.
-0.6593205738316799 2.006218601104249  0.
-0.7700936938826249 2.3109891049222226  0.
-0.8855906294590586 2.624477757476307  0.
-1.0047000633837615 2.944048111738488  0.
-1.1252580850014755 3.2679693375007157  0.
-1.2462487385612777 3.5939069815779874  0.
</DataArray>
<DataArray type="Float64" Name="sigma_xx" NumberOfComponents="1" format="ascii" >
-0.026190220238970576 
-0.026190220238970576 
-0.018658681710870286 
-0.011127143182769996 
-0.0021554673633553557 
0.006816208456059285 
0.012498276579264585 
0.018180344702469885 
0.022787847773147372 
0.027395350843824863 
0.03045375617284807 
0.03351216150187128 
0.03537035163374405 
0.03722854176561682 
0.03872507142317391 
0.04022160108073101 
0.04022160108073101 
-0.026190220238970576 
-0.018658681710870286 
-0.0021554673633553557 
0.012498276579264585 
0.022787847773147372 
0.03045375617284807 
0.03537035163374405 
0.03872507142317391 
0.04022160108073101 
-0.026190220238970576 
-0.026190220238970576 
-0.018658681710870286 
-0.011127143182769996 
-0.0021554673633553557 
0.006816208456059285 
0.012498276579264585 
0.018180344702469885 
0.022787847773147372 
0.027395350843824863 
0.03045375617284807 
0.03351216150187128 
0.03537035163374405 
0.03722854176561682 
0.03872507142317391 
0.04022160108073101 
0.04022160108073101 
</DataArray>
<DataArray type="Float64" Name="sigma_yy" NumberOfComponents="1" format="ascii" >
-0.036074116763197855 
-0.036074116763197855 
-0.04132173904790064 
-0.04656936133260342 
-0.037809976208263055 
-0.02905059108392269 
-0.024601065412714368 
-0.02015153974150605 
-0.015678592036582867 
-0.011205644331659683 
-0.008342812173520722 
-0.005479980015381761 
-0.0032940856123395033 
-0.0011081912092972463 
0.00606901053496577 
0.013246212279228786 
0.013246212279228786 
-0.036074116763197855 
-0.04132173904790064 
-0.037809976208263055 
-0.024601065412714368 
-0.015678592036582867 
-0.008342812173520722 
-0.0032940856123395033 
0.00606901053496577 
0.013246212279228786 
-0.036074116763197855 
-0.036074116763197855 
-0.04132173904790064 
-0.04656936133260342 
-0.037809976208263055 
-0.02905059108392269 
-0.024601065412714368 
-0.02015153974150605 
-0.015678592036582867 
-0.011205644331659683 
-0.008342812173520722 
-0.005479980015381761 
-0.0032940856123395033 
-0.0011081912092972463 
0.00606901053496577 
0.013246212279228786 
0.013246212279228786 
</DataArray>
<DataArray type="Float64" Name="sigma_xy" NumberOfComponents="1" format="ascii" >
0.06635754158926538 
0.06635754158926538 
0.06528488894790874 
0.0642122363065521 
0.06291339691150907 
0.06161455751646606 
0.059956716309614744 
0.05829887510276342 
0.05681141896478539 
0.05532396282680737 
0.05411122295330273 
0.05289848307979809 
0.05208027572767559 
0.05126206837555309 
0.050892438277166364 
0.05052280817877964 
0.05052280817877964 
0.06635754158926538 
0.06528488894790874 
0.06291339691150907 
0.059956716309614744 
0.05681141896478539 
0.05411122295330273 
0.05208027572767559 
0.050892438277166364 
0.05052280817877964 
0.06635754158926538 
0.06635754158926538 
0.06528488894790874 
0.0642122363065521 
0.06291339691150907 
0.06161455751646606 
0.059956716309614744 
0.05829887510276342 
0.05681141896478539 
0.05532396282680737 
0.05411122295330273 
0.05289848307979809 
0.05208027572767559 
0.05126206837555309 
0.050892438277166364 
0.05052280817877964 
0.05052280817877964 
</DataArray>
</PointData>
<CellData>
</CellData>
<Points>
<DataArray type="Float64" Name="Points" NumberOfComponents="3" format="ascii">
0.0 0.0 0.0
0.5 0.0 0.0
1.0 0.0 0.0
1.5 0.0 0.0
2.0 0.0 0.0
2.5 0.0 0.0
3.0 0.0 0.0
3.5 0.0 0.0
4.0 0.0 0.0
4.5 0.0 0.0
5.0 0.0 0.0
5.5 0.0 0.0
6.0 0.0 0.0
6.5 0.0 0.0
7.0 0.0 0.0
7.5 0.0 0.0
8.0 0.0 0.0
0.0 0.25 0.0
1.0 0.25 0.0
2.0 0.25 0.0
3.0 0.25 0.0
4.0 0.25 0.0
5.0 0.25 0.0
6.0 0.25 0.0
7.0 0.25 0.0
8.0 0.25 0.0
0.0 0.5 0.0
0.5 0.5 0.0
1.0 0.5 0.0
1.5 0.5 0.0
2.0 0.5 0.0
2.5 0.5 0.0
3.0 0.5 0.0
3.5 0.5 0.0
4.0 0.5 0.0
4.5 0.5 0.0
5.0 0.5 0.0
5.5 0.5 0.0
6.0 0.5 0.0
6.5 0.5 0.0
7.0 0.5 0.0
7.5 0.5 0.0
8.0 0.5 0.0
</DataArray>
</Points>
<Cells>
<DataArray type="Int64" Name="connectivity" format="ascii">
0 2 28 26 
2 4 30 28 
4 6 32 30 
6 8 34 32 
8 10 36 34 
10 12 38 36 
12 14 40 38 
14 16 42 40 
</DataArray>
<DataArray type="Int64" Name="offsets" format="ascii">
8
16
24
32
40
48
56
64
</DataArray>
<DataArray type="UInt8" Name="types" format="ascii" RangeMin="9" RangeMax="9">
9
9
9
9
9
9
9
9
</DataArray>
</Cells>
</Piece>
</UnstructuredGrid>
</VTKFile>
