<?xml version="1.0"?>
<VTKFile type="UnstructuredGrid" version="0.1" byte_order="LittleEndian" compressor="vtkZLibDataCompressor">
<UnstructuredGrid>
<Piece NumberOfPoints="8" NumberOfCells="10">
<PointData>
<DataArray type="Float64" Name="displacement" NumberOfComponents="3" format="ascii" >
0.0 0.0  0.
0.00024 0.00012  0.
6e-05 0.00012  0.
0.000195 0.00011999999999999995  0.
0.00019999999999999998 0.00015999999999999996  0.
4.999999999999998e-05 3.999999999999998e-05  0.
0.00011999999999999999 0.00011999999999999999  0.
0.0003 0.00024  0.
</DataArray>
<DataArray type="Float64" Name="sigma_xx" NumberOfComponents="1" format="ascii" >
1333.3333333333333 
1333.3333333333333 
1333.3333333333333 
1333.3333333333335 
1333.3333333333335 
1333.3333333333335 
1333.3333333333335 
1333.3333333333337 
</DataArray>
<DataArray type="Float64" Name="sigma_yy" NumberOfComponents="1" format="ascii" >
1333.3333333333328 
1333.333333333333 
1333.3333333333337 
1333.3333333333333 
1333.3333333333344 
1333.3333333333335 
1333.3333333333342 
1333.3333333333344 
</DataArray>
<DataArray type="Float64" Name="sigma_xy" NumberOfComponents="1" format="ascii" >
399.99999999999983 
400.0000000000003 
400.00000000000006 
399.9999999999999 
399.99999999999994 
399.9999999999998 
399.99999999999994 
400.00000000000006 
</DataArray>
</PointData>
<CellData>
</CellData>
<Points>
<DataArray type="Float64" Name="Points" NumberOfComponents="3" format="ascii">
0.0 0.0 0.0
0.24 0.0 0.0
0.0 0.12 0.0
0.18 0.03 0.0
0.16 0.08 0.0
0.04 0.02 0.0
0.08 0.08 0.0
0.24 0.12 0.0
</DataArray>
</Points>
<Cells>
<DataArray type="Int64" Name="connectivity" format="ascii">
0 1 3 
0 3 5 
2 0 5 
2 5 6 
1 7 4 
1 4 3 
7 2 6 
7 6 4 
5 3 4 
5 4 6 
</DataArray>
<DataArray type="Int64" Name="offsets" format="ascii">
3
6
9
12
15
18
21
24
27
30
</DataArray>
<DataArray type="UInt8" Name="types" format="ascii" RangeMin="9" RangeMax="9">
9
9
9
9
9
9
9
9
9
9
</DataArray>
</Cells>
</Piece>
</UnstructuredGrid>
</VTKFile>
