<?xml version="1.0"?>
<VTKFile type="UnstructuredGrid" version="0.1" byte_order="LittleEndian" compressor="vtkZLibDataCompressor">
<UnstructuredGrid>
<Piece NumberOfPoints="126" NumberOfCells="100">
<PointData>
<DataArray type="Float64" Name="displacement" NumberOfComponents="3" format="ascii" >
0.0 0.0  0.
0.0 0.0  0.
0.0 0.0  0.
0.0 0.0  0.
0.0 0.0  0.
0.0 0.0  0.
0.03260372034621658 -0.031799849252678584  0.
0.015678711582981245 -0.012975160312484206  0.
0.005346299522724129 -0.005040689837170086  0.
-0.004648701960506447 -0.004060130742487525  0.
-0.015045601945904017 -0.010120438333512791  0.
-0.032037240310748324 -0.027388050483493517  0.
0.06601800410146053 -0.057415574408512055  0.
0.0369417566584935 -0.04020593272624274  0.
0.012320929325210582 -0.03013620613523703  0.
-0.010488929875013049 -0.028578585789772452  0.
-0.03534153728727775 -0.03573562697656052  0.
-0.0651684503922554 -0.050813472373887336  0.
0.09701986269971904 -0.09581362246494377  0.
0.056433923270404744 -0.07889395246375859  0.
0.019200977370679304 -0.06919803897743233  0.
-0.01690435746333562 -0.06722027553999022  0.
-0.05467748311987297 -0.07318797388960459  0.
-0.0967124537152286 -0.08702975047915015  0.
0.1259287606184583 -0.14633551639511644  0.
0.07394426288001942 -0.12988998716523031  0.
0.02489124457592479 -0.12031935979230167  0.
-0.023346448109407725 -0.11791034797912703  0.
-0.07320371463075437 -0.12282231002847888  0.
-0.12707688691213864 -0.1350621803725605  0.
0.15236343712273673 -0.20855638249538513  0.
0.08950657897799467 -0.19243532066115643  0.
0.029396222906809315 -0.18284641299758167  0.
-0.03007443946131076 -0.17992839122810447  0.
-0.09116705899319728 -0.18377458115722056  0.
-0.15618459976952287 -0.19440604242895726  0.
0.17621983297911858 -0.28166556930739256  0.
0.10313381908774748 -0.2657864961288379  0.
0.03269194592597614 -0.2560666552031038  0.
-0.03720166448551112 -0.2525649785076311  0.
-0.10873280810492941 -0.25531407714884724  0.
-0.18413468279631 -0.2643044198961315  0.
0.19744942224621817 -0.36487108849935546  0.
0.11481505833302885 -0.3491738156927783  0.
0.03476128783150256 -0.33925449330182106  0.
-0.044793153447159346 -0.335112551636029  0.
-0.12599118221016495 -0.3367291374976992  0.
-0.2110176750370535 -0.3440591916993089  0.
0.21603737406724144 -0.4573906422511569  0.
0.12454279140122118 -0.44183969868711437  0.
0.0355920061016524 -0.43168078608539245  0.
-0.052881991663287074 -0.4268641563618497  0.
-0.14299467313678507 -0.4273265790506557  0.
-0.2368984132616894 -0.43298823077347454  0.
0.23198657531980907 -0.5584558166737171  0.
0.1323205365178408 -0.543036985304557  0.
0.03518340224284147 -0.5326213105132397  0.
-0.061480737358918916 -0.5271160730285668  0.
-0.15976893520909635 -0.5264189172321796  0.
-0.2618120240940231 -0.5304169898776353  0.
0.24531365642232406 -0.667308607701474  0.
0.13816468604833665 -0.6520268243139586  0.
0.03354833149586087 -0.6413564642648935  0.
-0.07058404811056489 -0.635166678464734  0.
-0.1763172430071455 -0.6333200016238223  0.
-0.2857676032590364 -0.6356723353245349  0.
0.25604762853719165 -0.7831987797349861  0.
0.14210470949540607 -0.7680760242764216  0.
0.030713813437417744 -0.7571697114733501  0.
-0.08016982378438225 -0.7503150925272111  0.
-0.1926230444099815 -0.7473430229015697  0.
-0.30875210509386397 -0.7480801277698546  0.
0.26422947745391345 -0.9053818718927304  0.
0.14418287352461653 -0.8904551863969077  0.
0.026720779762324207 -0.8793462146549434  0.
-0.09020026114315621 -0.8718602180794208  0.
-0.20865213901562427 -0.8677996007087801  0.
-0.33073364190405813 -0.8669640034343592  0.
0.2699118443131375 -1.0331179519905123  0.
0.1444536714040558 -1.0184375830360684  0.
0.021623313065254966 -1.007172025120505  0.
-0.10062311450389633 -0.999100209142537  0.
-0.22435471814976596 -0.9939993010628994  0.
-0.35166422612521614 -0.9916446805904908  0.
0.2731585302740291 -1.165670912278399  0.
0.14298294534706585 -1.1512985919789038  0.
0.015487504625755948 -1.1399337957266737  0.
-0.1113730396127785 -1.1313323303272995  0.
-0.2396672467273365 -1.1252493565051276  0.
-0.3714821847132374 -1.1214394745403915  0.
0.27404391865964284 -1.3023080005026628  0.
0.13984650293276263 -1.2883154135758643  0.
0.00838980535309993 -1.2769190881927588  0.
-0.12237272645932538 -1.267853389908264  0.
-0.2545139486783706 -1.2608544925816443  0.
-0.3901145940176055 -1.255661755064548  0.
0.272653244314944 -1.4422994105349551  0.
0.13512740824988503 -1.4287665893731378  0.
0.00041400247104184215 -1.4174179236463058  0.
-0.13353305637682372 -1.4079617200462176  0.
-0.2688069995374493 -1.4001168337200418  0.
-0.4074808573557326 -1.3936201257413037  0.
0.26908655748340327 -1.5849177241449244  0.
0.128908962723076 -1.571931727124529  0.
-0.00835495322977821 -1.560726786645257  0.
-0.14475099317164164 -1.5509625588649558  0.
-0.2824427713250905 -1.5423376059894913  0.
-0.4235004273141385 -1.534616855193758  0.
0.26347641948708594 -1.7294583123024994  0.
0.12126103371081094 -1.7170916924229653  0.
-0.01784311892898409 -1.7061535257253995  0.
-0.15590253688656766 -1.6961764453368184  0.
-0.2952925367126527 -1.6868227434213037  0.
-0.4381203802915109 -1.6779645553926876  0.
0.25598859081264913 -1.8753103254142613  0.
0.11224052585816478 -1.863608144434076  0.
-0.027936008751080352 -1.852941033082113  0.
-0.16687652778702916 -1.8428523528561045  0.
-0.30723165967722577 -1.8329653278428546  0.
-0.4513415258962435 -1.8230618971519938  0.
0.24667867317185488 -2.0230749870831395  0.
0.10241658319890187 -2.0111062376350217  0.
-0.038133317109751284 -1.999669268145882  0.
-0.17776063580631046 -1.9895074967121555  0.
-0.31870368627052553 -1.9802954139558284  0.
-0.4633923332452665 -1.9705214283985155  0.
</DataArray>
<DataArray type="Float64" Name="Nodal_sigma_xx" NumberOfComponents="1" format="ascii" >
4.713253222311731 
3.4352074968833493 
1.1078752201656217 
-1.0380463764639232 
-3.609817149726938 
-5.084952877649754 
4.462874327339449 
3.3578161411375103 
1.1601453458810358 
-1.0837959015509036 
-3.5399448652015177 
-4.844765190474728 
4.109935620622098 
3.1747692495323996 
1.1568559762754498 
-1.074797004827811 
-3.3496874335842675 
-4.4756717834047155 
3.8921032695947684 
2.9742016221810936 
1.0618002380335185 
-0.9842913544856324 
-3.1195243941208797 
-4.203165577970877 
3.6634029147279636 
2.789099742226516 
0.9870196192755449 
-0.9162196992712244 
-2.90611106257243 
-3.9205400577763907 
3.436901316809198 
2.611358492076165 
0.9194405314704899 
-0.8531836402376196 
-2.7030379006282144 
-3.646643125183342 
3.2116595960861725 
2.4377427471996134 
0.8562962219677409 
-0.7921878872931547 
-2.5069525130946744 
-3.3807627059806125 
2.9880373112093004 
2.266539031609376 
0.7954026466150579 
-0.7319313650469215 
-2.315630707039512 
-3.1216341427645156 
2.765546630786654 
2.0967882863803213 
0.7357614594090228 
-0.6722088868881164 
-2.127694034704869 
-2.8674773187894473 
2.5435693283061696 
1.9277870794211354 
0.6768104776853884 
-0.6129218031787349 
-1.9421791650895521 
-2.6168985989869586 
2.321503566737446 
1.7589926721827411 
0.6182250748208307 
-0.5539617541786301 
-1.758400045664525 
-2.3689082109581645 
2.09885559757414 
1.5899969394729652 
0.5598106792459262 
-0.4952147128702435 
-1.5758772079630305 
-2.1228419130655123 
1.8752614799845948 
1.4205104723733237 
0.5014501502502412 
-0.43658224616479724 
-1.394289600426813 
-1.8782738727856014 
1.650477796946885 
1.250341487351557 
0.4430742320550412 
-0.37798816409130986 
-1.2134352802176391 
-1.6349509458988047 
1.4243607789686743 
1.0793683747659222 
0.384640041644613 
-0.3193678849606034 
-1.0331954645745032 
-1.3927510465017436 
1.1968541501064593 
0.9074965799637589 
0.3260950881421014 
-0.260626393151359 
-0.8534896305227538 
-1.1516753082796454 
0.9680453881874617 
0.7345561517568737 
0.26725066851277934 
-0.2014942972019364 
-0.6741757594197124 
-0.9119285027362792 
0.7383307404520338 
0.5600469777522148 
0.20744618034703102 
-0.14118038310109782 
-0.49480053279802405 
-0.6741111537521861 
0.5093261630074284 
0.38263550299711163 
0.14458241693480284 
-0.07744861038136175 
-0.3140901740583847 
-0.4400631364712352 
0.2786194543005788 
0.2030109344190494 
0.08060214107837856 
-0.012265303126482698 
-0.13268713792688225 
-0.20704180198156208 
0.16190908474924695 
0.11305667505665526 
0.04921664276026526 
0.019784877118584433 
-0.0422043170887135 
-0.08974936825812893 
</DataArray>
<DataArray type="Float64" Name="Nodal_sigma_yy" NumberOfComponents="1" format="ascii" >
1.607984902596462 
1.2123543481363315 
0.43704182216736565 
-0.32440970771068867 
-1.1115962945059152 
-1.5170133229319225 
0.754103699085621 
0.6162003259245196 
0.24354955880859178 
-0.225522265498726 
-0.5994967696453417 
-0.7391468434394656 
-0.060959120564330976 
-0.019514017364588944 
-0.018110938946636304 
-0.09129192153920013 
-0.06055127371988384 
0.003328331910206886 
-0.029694614502543015 
-0.05827215126775165 
-0.08225745045777766 
-0.06092444206579318 
-0.03462843545002682 
-0.025073199651062306 
-0.032562028963025104 
-0.05188402993512515 
-0.07294275396646831 
-0.0637495167618081 
-0.03625676939353363 
-0.019693982289162484 
-0.02562610518590635 
-0.042340837333012055 
-0.06239733587481815 
-0.058000807562645175 
-0.035315190205420156 
-0.020367867555068503 
-0.021494691373690367 
-0.035313606028889444 
-0.052773481801702965 
-0.05060731417970908 
-0.03155631344904361 
-0.01831244145798646 
-0.01806337324869403 
-0.029704899563686656 
-0.04468281526745808 
-0.04338749550222426 
-0.027409222445261196 
-0.01606265854231076 
-0.015163646914049984 
-0.02497551906890807 
-0.03773968844597721 
-0.03692750332408595 
-0.023521577222721617 
-0.01388013346545959 
-0.01262305797936121 
-0.020857653244321685 
-0.0316704506602785 
-0.03118040380752695 
-0.01998299963466092 
-0.011853844465542773 
-0.010379773279925189 
-0.017221998566266612 
-0.026289604290927162 
-0.026026256869670146 
-0.016756720934628513 
-0.009975912859163022 
-0.008397554225728878 
-0.013999788118566737 
-0.02149296435554715 
-0.021384389631558868 
-0.013813096081697715 
-0.008241319599967399 
-0.0066541623202804115 
-0.011153365467058434 
-0.017229352660117284 
-0.017221765918765362 
-0.011146223230540703 
-0.006655051329948793 
-0.005132451130684796 
-0.008658395827203912 
-0.01347703212926413 
-0.013540696231331336 
-0.008771753636177628 
-0.005231838544497817 
-0.0038061927402654114 
-0.006479505707665522 
-0.010219908811614699 
-0.01037996974464412 
-0.006739052060382375 
-0.004005163579640276 
-0.002604189623451934 
-0.004503862784284741 
-0.007395637337677853 
-0.007855288855570406 
-0.005191913097234043 
-0.0030609872135654304 
-0.001257879308783588 
-0.0023661149503989075 
-0.004790727929567558 
-0.006243148954576613 
-0.0045315458087220525 
-0.0026838989754117692 
0.00032717462027026046 
0.0004572773623146224 
-0.0019268274940522022 
-0.00600909864103569 
-0.005266395571411642 
-0.0029556289532152932 
0.0017754036476724817 
0.0008489543439460449 
-0.0016264499732302092 
-0.003912778218510321 
-0.003986109287675961 
-0.0033220671250113066 
-0.043264958391186346 
-0.04916450330851388 
-0.027936053898037206 
0.02639890391377353 
0.04802206532895292 
0.0424382632601258 
-0.08893158012643546 
-0.09792491896743573 
-0.052970025847520516 
0.054318090967351705 
0.09798004384362219 
0.08830211186593595 
</DataArray>
<DataArray type="Float64" Name="Nodal_sigma_xy" NumberOfComponents="1" format="ascii" >
-0.5892870381341584 
-0.3955963509255723 
-0.11150379661258086 
-0.08060192445416182 
-0.3640198674293054 
-0.5879378154584627 
-0.3582879731733804 
-0.32841394864499696 
-0.2594432028863968 
-0.24798050318551715 
-0.31998821531272803 
-0.36436190591060186 
-0.12116472512749986 
-0.24572421531522343 
-0.4043595294925716 
-0.4169505937760576 
-0.26921743395763137 
-0.14296903384534373 
-0.12104954700016234 
-0.22938709344299152 
-0.38824787032340463 
-0.40508943587419993 
-0.26078304805923236 
-0.15015832513105332 
-0.12931119130890945 
-0.2274067886734974 
-0.3679521666992958 
-0.3829600102183982 
-0.2552298322397957 
-0.1549415914033011 
-0.13179358166785848 
-0.22498470011833288 
-0.35640991303021774 
-0.3686908376315327 
-0.24777319964804226 
-0.15280873152464733 
-0.13170837951175582 
-0.2225442182343722 
-0.34919695275377133 
-0.35934339889656153 
-0.24140486521451704 
-0.14913678118646506 
-0.13106743126881298 
-0.22049953136177575 
-0.3443632248271775 
-0.3530410331252265 
-0.23668602128453603 
-0.1460847945182355 
-0.13055884628548847 
-0.2190839847048232 
-0.34115214539665106 
-0.348810102687093 
-0.23341623143615478 
-0.1439074251672676 
-0.13035695935755628 
-0.21831009581614297 
-0.3391855029429458 
-0.3460657844107085 
-0.23121798539063304 
-0.14241217557101096 
-0.13045588765124955 
-0.218084825639357 
-0.3381666982690643 
-0.3443814262281381 
-0.2297606459042241 
-0.1413780722628362 
-0.13079238714090907 
-0.2182769256199849 
-0.33783356034988155 
-0.34342655350322676 
-0.2287923958627186 
-0.1406373413196862 
-0.13129335115591123 
-0.21875690998844588 
-0.3379638168247068 
-0.34294661819012345 
-0.22812874079797443 
-0.14007141004413498 
-0.131892567936864 
-0.21941563080017817 
-0.33838553089484813 
-0.34275367556491454 
-0.22763396250296286 
-0.1395929420023006 
-0.13252458920433685 
-0.22016686513672484 
-0.33899198402201436 
-0.34272820456358877 
-0.2271993510465949 
-0.13911711994092812 
-0.13306875918993205 
-0.22092749222135208 
-0.3397929662300523 
-0.3428612354063999 
-0.22670481931342817 
-0.13848687502138896 
-0.13314253016018734 
-0.22154920791445992 
-0.34108370832708906 
-0.34341780857293824 
-0.22593680705816127 
-0.13724952795589182 
-0.1316506287839765 
-0.221662371261016 
-0.3437972041149907 
-0.34529294328830473 
-0.22444638896464036 
-0.13422718584459709 
-0.1275936294568351 
-0.22122288806237372 
-0.3484130636592516 
-0.3489584344118805 
-0.22222456202075952 
-0.12850623586834897 
-0.13971975697583452 
-0.22580292358286563 
-0.339001818032758 
-0.33889565549784184 
-0.22582554795283977 
-0.13997733078561525 
-0.1545658871320674 
-0.23068526747514634 
-0.32685765976393377 
-0.32660019543202423 
-0.2306463618025912 
-0.15500300445077625 
</DataArray>
</PointData>
<CellData>
</CellData>
<Points>
<DataArray type="Float64" Name="Points" NumberOfComponents="3" format="ascii">
0.0 5.0 0.0
0.0 4.0 0.0
0.0 3.0 0.0
0.0 2.0 0.0
0.0 1.0 0.0
0.0 0.0 0.0
1.0 5.0 0.0
1.0 4.0 0.0
1.0 3.0 0.0
1.0 2.0 0.0
1.0 1.0 0.0
1.0 0.0 0.0
2.0 5.0 0.0
2.0 4.0 0.0
2.0 3.0 0.0
2.0 2.0 0.0
2.0 1.0 0.0
2.0 0.0 0.0
3.0 5.0 0.0
3.0 4.0 0.0
3.0 3.0 0.0
3.0 2.0 0.0
3.0 1.0 0.0
3.0 0.0 0.0
4.0 5.0 0.0
4.0 4.0 0.0
4.0 3.0 0.0
4.0 2.0 0.0
4.0 1.0 0.0
4.0 0.0 0.0
5.0 5.0 0.0
5.0 4.0 0.0
5.0 3.0 0.0
5.0 2.0 0.0
5.0 1.0 0.0
5.0 0.0 0.0
6.0 5.0 0.0
6.0 4.0 0.0
6.0 3.0 0.0
6.0 2.0 0.0
6.0 1.0 0.0
6.0 0.0 0.0
7.0 5.0 0.0
7.0 4.0 0.0
7.0 3.0 0.0
7.0 2.0 0.0
7.0 1.0 0.0
7.0 0.0 0.0
8.0 5.0 0.0
8.0 4.0 0.0
8.0 3.0 0.0
8.0 2.0 0.0
8.0 1.0 0.0
8.0 0.0 0.0
9.0 5.0 0.0
9.0 4.0 0.0
9.0 3.0 0.0
9.0 2.0 0.0
9.0 1.0 0.0
9.0 0.0 0.0
10.0 5.0 0.0
10.0 4.0 0.0
10.0 3.0 0.0
10.0 2.0 0.0
10.0 1.0 0.0
10.0 0.0 0.0
11.0 5.0 0.0
11.0 4.0 0.0
11.0 3.0 0.0
11.0 2.0 0.0
11.0 1.0 0.0
11.0 0.0 0.0
12.0 5.0 0.0
12.0 4.0 0.0
12.0 3.0 0.0
12.0 2.0 0.0
12.0 1.0 0.0
12.0 0.0 0.0
13.0 5.0 0.0
13.0 4.0 0.0
13.0 3.0 0.0
13.0 2.0 0.0
13.0 1.0 0.0
13.0 0.0 0.0
14.0 5.0 0.0
14.0 4.0 0.0
14.0 3.0 0.0
14.0 2.0 0.0
14.0 1.0 0.0
14.0 0.0 0.0
15.0 5.0 0.0
15.0 4.0 0.0
15.0 3.0 0.0
15.0 2.0 0.0
15.0 1.0 0.0
15.0 0.0 0.0
16.0 5.0 0.0
16.0 4.0 0.0
16.0 3.0 0.0
16.0 2.0 0.0
16.0 1.0 0.0
16.0 0.0 0.0
17.0 5.0 0.0
17.0 4.0 0.0
17.0 3.0 0.0
17.0 2.0 0.0
17.0 1.0 0.0
17.0 0.0 0.0
18.0 5.0 0.0
18.0 4.0 0.0
18.0 3.0 0.0
18.0 2.0 0.0
18.0 1.0 0.0
18.0 0.0 0.0
19.0 5.0 0.0
19.0 4.0 0.0
19.0 3.0 0.0
19.0 2.0 0.0
19.0 1.0 0.0
19.0 0.0 0.0
20.0 5.0 0.0
20.0 4.0 0.0
20.0 3.0 0.0
20.0 2.0 0.0
20.0 1.0 0.0
20.0 0.0 0.0
</DataArray>
</Points>
<Cells>
<DataArray type="Int64" Name="connectivity" format="ascii">
0 1 7 6 
1 2 8 7 
2 3 9 8 
3 4 10 9 
4 5 11 10 
6 7 13 12 
7 8 14 13 
8 9 15 14 
9 10 16 15 
10 11 17 16 
12 13 19 18 
13 14 20 19 
14 15 21 20 
15 16 22 21 
16 17 23 22 
18 19 25 24 
19 20 26 25 
20 21 27 26 
21 22 28 27 
22 23 29 28 
24 25 31 30 
25 26 32 31 
26 27 33 32 
27 28 34 33 
28 29 35 34 
30 31 37 36 
31 32 38 37 
32 33 39 38 
33 34 40 39 
34 35 41 40 
36 37 43 42 
37 38 44 43 
38 39 45 44 
39 40 46 45 
40 41 47 46 
42 43 49 48 
43 44 50 49 
44 45 51 50 
45 46 52 51 
46 47 53 52 
48 49 55 54 
49 50 56 55 
50 51 57 56 
51 52 58 57 
52 53 59 58 
54 55 61 60 
55 56 62 61 
56 57 63 62 
57 58 64 63 
58 59 65 64 
60 61 67 66 
61 62 68 67 
62 63 69 68 
63 64 70 69 
64 65 71 70 
66 67 73 72 
67 68 74 73 
68 69 75 74 
69 70 76 75 
70 71 77 76 
72 73 79 78 
73 74 80 79 
74 75 81 80 
75 76 82 81 
76 77 83 82 
78 79 85 84 
79 80 86 85 
80 81 87 86 
81 82 88 87 
82 83 89 88 
84 85 91 90 
85 86 92 91 
86 87 93 92 
87 88 94 93 
88 89 95 94 
90 91 97 96 
91 92 98 97 
92 93 99 98 
93 94 100 99 
94 95 101 100 
96 97 103 102 
97 98 104 103 
98 99 105 104 
99 100 106 105 
100 101 107 106 
102 103 109 108 
103 104 110 109 
104 105 111 110 
105 106 112 111 
106 107 113 112 
108 109 115 114 
109 110 116 115 
110 111 117 116 
111 112 118 117 
112 113 119 118 
114 115 121 120 
115 116 122 121 
116 117 123 122 
117 118 124 123 
118 119 125 124 
</DataArray>
<DataArray type="Int64" Name="offsets" format="ascii">
4
8
12
16
20
24
28
32
36
40
44
48
52
56
60
64
68
72
76
80
84
88
92
96
100
104
108
112
116
120
124
128
132
136
140
144
148
152
156
160
164
168
172
176
180
184
188
192
196
200
204
208
212
216
220
224
228
232
236
240
244
248
252
256
260
264
268
272
276
280
284
288
292
296
300
304
308
312
316
320
324
328
332
336
340
344
348
352
356
360
364
368
372
376
380
384
388
392
396
400
</DataArray>
<DataArray type="UInt8" Name="types" format="ascii" RangeMin="9" RangeMax="9">
9
9
9
9
9
9
9
9
9
9
9
9
9
9
9
9
9
9
9
9
9
9
9
9
9
9
9
9
9
9
9
9
9
9
9
9
9
9
9
9
9
9
9
9
9
9
9
9
9
9
9
9
9
9
9
9
9
9
9
9
9
9
9
9
9
9
9
9
9
9
9
9
9
9
9
9
9
9
9
9
9
9
9
9
9
9
9
9
9
9
9
9
9
9
9
9
9
9
9
9
</DataArray>
</Cells>
</Piece>
</UnstructuredGrid>
</VTKFile>
