<?xml version="1.0"?>
<VTKFile type="UnstructuredGrid" version="0.1" byte_order="LittleEndian" compressor="vtkZLibDataCompressor">
<UnstructuredGrid>
<Piece NumberOfPoints="126" NumberOfCells="100">
<PointData>
<DataArray type="Float64" Name="displacement" NumberOfComponents="3" format="ascii" >
0.0 0.0  0.
0.0 0.0  0.
0.0 0.0  0.
0.0 0.0  0.
0.0 0.0  0.
0.0 0.0  0.
0.060964673745097876 -0.060506982492175954  0.
0.030107910207722008 -0.025438037721047933  0.
0.010837538287757825 -0.010019507235262256  0.
-0.00791931517436917 -0.007448673341942852  0.
-0.027512404045587732 -0.01824703772889979  0.
-0.0596789292715138 -0.05065932953832901  0.
0.12361880251367965 -0.10992002691123405  0.
0.07034966247635031 -0.07729105182046259  0.
0.02458722325074983 -0.05750261702028544  0.
-0.01822621304713743 -0.0534014505768224  0.
-0.06517916367738276 -0.06580786946721844  0.
-0.12177673924649245 -0.09368027157464717  0.
0.18132189242964122 -0.18387513585220122  0.
0.10665579830296433 -0.15103911140697257  0.
0.037395256136101764 -0.13133714686776485  0.
-0.030380179192114706 -0.12590837279543313  0.
-0.10180953145967006 -0.13549614716523595  0.
-0.18181292785093434 -0.1603866952294451  0.
0.23437251623009583 -0.2812245582236689  0.
0.13834937604271702 -0.24834839436424194  0.
0.04696697891828506 -0.2281064949731031  0.
-0.04362347770246398 -0.22115549967777234  0.
-0.13796120031461892 -0.22801216861580934  0.
-0.24065305412821253 -0.24900904304588084  0.
0.28173637070453167 -0.4011051332761104  0.
0.16525705664894313 -0.36779258369174817  0.
0.05311537647439903 -0.3466099395263881  0.
-0.05862553036802497 -0.3378497151292326  0.
-0.17425740429416328 -0.34180299665160896  0.
-0.2982847924656225 -0.3587125482350521  0.
0.3229721119812976 -0.5418905064054661  0.
0.18720745522375382 -0.5079116276789206  0.
0.05563874298048967 -0.48547954689417977  0.
-0.07573120025890517 -0.4746589114622057  0.
-0.21111532174552836 -0.47552868497445955  0.
-0.35494785895501557 -0.48814980365166327  0.
0.3577999889252131 -0.7019501921858745  0.
0.2040365317794793 -0.6671493055589218  0.
0.05439402073777741 -0.6432724519616027  0.
-0.09514865325016034 -0.6302050297958074  0.
-0.24876497107595583 -0.6278370876403461  0.
-0.41083281756529205 -0.6360400921265063  0.
0.3860722330110123 -0.8796483207995565  0.
0.21564259600031185 -0.843940274934886  0.
0.04929687731715605 -0.8185037818101432  0.
-0.11698045272563279 -0.8030734885546671  0.
-0.2873264571337792 -0.7973727314562101  0.
-0.46606032244781986 -0.8010946550570406  0.
0.4077459339583135 -1.0733653969683299  0.
0.22200242058793468 -1.0367240461509202  0.
0.04033411877595054 -1.0096797137288724  0.
-0.14124783558225637 -0.9918357563825684  0.
-0.32683622771440296 -0.9827695806410469  0.
-0.5206823581031687 -0.9820154447867715  0.
0.4228720747735887 -1.2815051482545254  0.
0.22317218465870386 -1.2439568277078736  0.
0.027563959627454074 -1.2153140564767864  0.
-0.1679008089366781 -1.1950648789004963  0.
-0.3672618003370882 -1.1826603273569807  0.
-0.5746930428046355 -1.1774985767200095  0.
0.43158410477300957 -1.5025008244825218  0.
0.2192813036317927 -1.4641196456646408  0.
0.011110755166310911 -1.4339395424290677  0.
-0.19682705056581118 -1.411347521999581  0.
-0.4085124948880643 -1.3956867243657272  0.
-0.6280367351938164 -1.3862425673966057  0.
0.4340852580682783 -1.7348201771130058  0.
0.21052263940960805 -1.695724462711763  0.
-0.00884356678604642 -1.6641154136895686  0.
-0.22786101027484507 -1.6392922094756528  0.
-0.4504483936722936 -1.620507289547257  0.
-0.6806133133713894 -1.6069552065266086  0.
0.430635109912282 -1.976969086278756  0.
0.1971411582085841 -1.9373181543987197  0.
-0.03206934318678427 -1.9044319131323002  0.
-0.26079278216868734 -1.8775339108862312  0.
-0.492887752619683 -1.8558014584346239  0.
-0.7322818837157317 -1.8383577683984242  0.
0.42153655118788774 -2.227493490294762  0.
0.17942249198435478 -2.187484280153785  0.
-0.05829898420608723 -2.153512143891085  0.
-0.29537600437166334 -2.124735720755206  0.
-0.5356129656140705 -2.10027072562123  0.
-0.7828640333162233 -2.079186520974955  0.
0.40712445980887324 -2.484979355987932  0.
0.15768203276056408 -2.4448426194510096  0.
-0.08723643340454029 -2.4100121333274704  0.
-0.3313342024535206 -2.3795889670486976  0.
-0.5783749363595332 -2.35263765169986  0.
-0.8321474374347247 -2.328191724903556  0.
0.38775827806518604 -2.748051121115525  0.
0.1322535943478084 -2.7080460842790313  0.
-0.11856782980719972 -2.6726208228953974  0.
-0.3683645846569258 -2.640814454704266  0.
-0.6208945380357226 -2.61164364395336  0.
-0.8798916174445426 -2.5841340826295367  0.
0.36382359376917406 -3.015369853495997  0.
0.10347226846889283 -2.9757759473842698  0.
-0.15197684659063615 -2.9400624237076944  0.
-0.40613759369951363 -2.907168953926322  0.
-0.6628569600325189 -2.876049444239257  0.
-0.9258406773172023 -2.8457773263224277  0.
0.3357551036598758 -3.2856721012795456  0.
0.07164709622800758 -3.246736689421513  0.
-0.18716921000001574 -3.2110986918154234  0.
-0.44428711767530354 -3.177456702079455  0.
-0.7038964362888099 -3.144641951823044  0.
-0.9697747472443176 -3.111906581238716  0.
0.3040172296786632 -3.5578942780863754  0.
0.03704146735755708 -3.5197973326696657  0.
-0.22376320999482982 -3.484403696123965  0.
-0.48244804865183216 -3.450359889163611  0.
-0.7436660659273562 -3.4163647754078608  0.
-1.011574470134315 -3.3814505807119266  0.
0.26858691514745475 -3.833124750192227  0.
0.0007623044081810338 -3.79443405446161  0.
-0.26053932877013714 -3.7575759142229095  0.
-0.520432234102447 -3.7232216774599953  0.
-0.7828439897733334 -3.690269983564093  0.
-1.0517990247566729 -3.655435142706227  0.
</DataArray>
<DataArray type="Float64" Name="Nodal_sigma_xx" NumberOfComponents="1" format="ascii" >
8.515601026123452 
6.295801844115989 
2.1490676731449545 
-1.868772418114807 
-6.915705782822448 
-9.871734045233897 
8.077241058184716 
6.156087782299194 
2.238184445634739 
-1.96289899161956 
-6.797023142217066 
-9.426813916339203 
7.4752992860612295 
5.838656558892613 
2.2260600890139965 
-1.9567057472225176 
-6.448262579585974 
-8.733007318422917 
7.1209240777137595 
5.499833450892767 
2.0537483596728374 
-1.7912613769311436 
-6.007323951871385 
-8.203371254606584 
6.73773158867321 
5.182823008600426 
1.9183763074182847 
-1.6667820646435039 
-5.594501519577516 
-7.646600723559097 
6.347937326570381 
4.871797304716406 
1.7941651638671972 
-1.5500570110238079 
-5.195541691956563 
-7.098296316993544 
5.94953816382996 
4.560508833594569 
1.675911056593093 
-1.4351756584925037 
-4.8040444643014055 
-6.557395001790794 
5.5445886563333175 
4.246811960329669 
1.5598180865774287 
-1.3199070720429644 
-4.41683921362972 
-6.023263374344674 
5.134543259564919 
3.930634337295496 
1.444589439106652 
-1.2043077737153247 
-4.033306639635034 
-5.4955442686521865 
4.720950656982277 
3.612671351433656 
1.329898051057279 
-1.0887249395972862 
-3.6539575346340225 
-4.975061133843951 
4.305242414007507 
3.2938426048427543 
1.2158594372489564 
-0.9735005583157823 
-3.279690989424769 
-4.4631047833980615 
3.8886044835235083 
2.97499982710073 
1.102709439749693 
-0.8589213330196537 
-2.9113527471087206 
-3.9608391193566996 
3.4718872413310717 
2.6567791948572643 
0.9906448366713341 
-0.7452154024726876 
-2.5495174438767707 
-3.4689855578489555 
3.0555801851266455 
2.339544617185324 
0.8797587473131847 
-0.6325407041022635 
-2.1944208841265143 
-2.9877519146661333 
2.6398397866695023 
2.023383102178477 
0.7700218504570373 
-0.5209626548316882 
-1.8459745472542557 
-2.5169065016185126 
2.2245708095475942 
1.7081033908727292 
0.6612470450442623 
-0.41039521898577414 
-1.5037919053066269 
-2.055935254751045 
1.8096449237620276 
1.393137413569415 
0.5528858190916619 
-0.3003770194387719 
-1.1671139194137914 
-1.6043320651435178 
1.395307211534384 
1.0771652672928933 
0.4434407558105423 
-0.1894949605778688 
-0.8344520274087693 
-1.1620559450921188 
0.9838628192161625 
0.7572650724592017 
0.3287883906845434 
-0.0737320056585482 
-0.5027699875998429 
-0.7311665082157437 
0.5699701263175574 
0.43390413450854143 
0.2124280124803319 
0.04395956427399105 
-0.17249747866141693 
-0.3058962036096778 
0.36056919131365306 
0.2719760765673986 
0.15545408869891744 
0.10180610044480128 
-0.008331189680441761 
-0.09274936467379527 
</DataArray>
<DataArray type="Float64" Name="Nodal_sigma_yy" NumberOfComponents="1" format="ascii" >
2.931783118175545 
2.20087938625482 
0.7549552637180068 
-0.6733528719029858 
-2.1483142192860725 
-2.909987821664255 
1.3456517706350601 
1.0760904747850026 
0.3613640110476041 
-0.5180165224490402 
-1.199137024408682 
-1.4460421607590206 
-0.16354210557027168 
-0.11972970927427923 
-0.16192372631639007 
-0.30052902547799665 
-0.20031306298127155 
-0.04749821466104323 
-0.09943808371950932 
-0.1861550673440785 
-0.2784641268124308 
-0.24279472358572343 
-0.15027364680015304 
-0.09901404908507322 
-0.10132098742382135 
-0.16719517842261072 
-0.2491156722892625 
-0.23681570913041294 
-0.14715956941496816 
-0.08584969572623538 
-0.08405527341614685 
-0.14163316412446886 
-0.2167431813059315 
-0.21291234519427973 
-0.13676236915393059 
-0.08197535569837391 
-0.07222210875179916 
-0.12102302527464978 
-0.18618021888212322 
-0.1854856711095682 
-0.1203280730266873 
-0.0722212998009842 
-0.06191428622674661 
-0.10337661316798957 
-0.1588560728689177 
-0.15850027315658266 
-0.10299730839612477 
-0.061867276107687066 
-0.05279114597376745 
-0.0877110366364997 
-0.1342186049886706 
-0.13346119686422112 
-0.08645248190927282 
-0.051788852768212754 
-0.04451087976715799 
-0.0735721998396561 
-0.1119724511611045 
-0.11067965900337505 
-0.07125824622045605 
-0.0424685568442168 
-0.03698497738706477 
-0.060813444971672174 
-0.09200349446288572 
-0.09027137981041841 
-0.05764435229212929 
-0.03411102133291363 
-0.030201128930672692 
-0.04941270509141984 
-0.0743051011140099 
-0.07230493689048023 
-0.04571985219526562 
-0.026815751585423625 
-0.02417235616282576 
-0.039377472879150575 
-0.058878098474392675 
-0.05679062753749037 
-0.035504240823001465 
-0.020600833924332165 
-0.018900471047548432 
-0.030689292197941826 
-0.04567307989802159 
-0.04366980959965293 
-0.026951215796689586 
-0.015430858841781296 
-0.01434379162463481 
-0.023257544491190864 
-0.03456074847747531 
-0.03285157614544372 
-0.020008767718027606 
-0.011264582742371472 
-0.010357604411164963 
-0.016813940543882383 
-0.025270010640031683 
-0.02432796580361356 
-0.0147639215942676 
-0.00814165618477164 
-0.006438451277488627 
-0.010632258862412218 
-0.017254020721161688 
-0.018377456205981565 
-0.011767460919504126 
-0.0064619844220326905 
-0.0024214532002061993 
-0.0037676516788330743 
-0.009608799984502824 
-0.015718737198992527 
-0.011809686875078645 
-0.006285649163717939 
0.001000639748926166 
-0.0019405408766279201 
-0.0076963945877017515 
-0.010774976634789648 
-0.008756890005817277 
-0.006474894415276756 
-0.07961248820679198 
-0.0915161269386988 
-0.054909398360289935 
0.043216314263793694 
0.08404734717682388 
0.07526303477608613 
-0.1616723459118199 
-0.17921153516056654 
-0.10016972751315248 
0.0926507924997377 
0.17293216893978336 
0.1569740222630995 
</DataArray>
<DataArray type="Float64" Name="Nodal_sigma_xy" NumberOfComponents="1" format="ascii" >
-0.9969161259848701 
-0.6747861336711931 
-0.17979974354775538 
-0.11051822034583386 
-0.6811214409907753 
-1.1481497870278776 
-0.6013971305360544 
-0.5591118883299819 
-0.4474178102228083 
-0.4326692961190133 
-0.5951155594701005 
-0.7029015010238815 
-0.196954728176138 
-0.4180884427401932 
-0.7127365575003883 
-0.7596364907904589 
-0.4998210990666407 
-0.26662017424889173 
-0.20208620383128667 
-0.39584634450663025 
-0.6920912716838652 
-0.7443001896957903 
-0.49096558541277696 
-0.28790684961973034 
-0.22361551339937263 
-0.4021289891246571 
-0.6677840375040003 
-0.7146392450038508 
-0.4886154930508901 
-0.30287810625213774 
-0.23487036071099693 
-0.408182603750659 
-0.6611757738802572 
-0.7016004501500079 
-0.48356349683801014 
-0.30478279434619726 
-0.24091021082113773 
-0.41329887013990907 
-0.6614084830982293 
-0.6968338574062161 
-0.47971327958978144 
-0.30288828110490884 
-0.24459795439591292 
-0.4170333993720778 
-0.6629606332751943 
-0.6946196982312154 
-0.47660465564560817 
-0.30042233703093146 
-0.24683606278894468 
-0.41922287911254075 
-0.6634256146922625 
-0.6919755809206974 
-0.47304809000442305 
-0.2973865521158393 
-0.24795425904129734 
-0.41985484288702757 
-0.6619737519829824 
-0.6876560860976932 
-0.46829245946860976 
-0.29346482397504026 
-0.2481847437260421 
-0.41911527714110963 
-0.6585754029992459 
-0.6814510400536369 
-0.46222786907407665 
-0.2886586534831944 
-0.24776394796829282 
-0.4173272504435025 
-0.653625452638207 
-0.6737280474431403 
-0.45516221923220823 
-0.283228695935838 
-0.24693074142551613 
-0.4148731147587128 
-0.6477012904146562 
-0.6651008415926044 
-0.4475686120519139 
-0.277522633656022 
-0.24590301317365015 
-0.41212795637137634 
-0.6414086629463457 
-0.6562176674273366 
-0.43991182471472934 
-0.27185274089837447 
-0.24483859944407046 
-0.40940957733310257 
-0.6353154010833428 
-0.6476696755499637 
-0.43255343535934354 
-0.2664177665633107 
-0.2437225614540957 
-0.40692032196139805 
-0.6300107571973368 
-0.6400457860192514 
-0.4256853968507309 
-0.2611826535889322 
-0.24199659689439829 
-0.40462358725397823 
-0.6264116291188158 
-0.6342449888709769 
-0.4192136404273479 
-0.2555099837368153 
-0.23778032181250391 
-0.40199358266281715 
-0.626417998715186 
-0.6321322566188923 
-0.4125201638623092 
-0.2474049684040756 
-0.2293798043827777 
-0.399144560261838 
-0.6310956787651162 
-0.6345649520458001 
-0.4055500564135996 
-0.23525225012493306 
-0.251006250092496 
-0.40696268531997415 
-0.6126093707360734 
-0.6133327164109477 
-0.4090022008979917 
-0.25363858989878235 
-0.27795387793150805 
-0.41612502180761307 
-0.5906750326566423 
-0.5898528236123326 
-0.41590253371934094 
-0.2791533198435833 
</DataArray>
</PointData>
<CellData>
</CellData>
<Points>
<DataArray type="Float64" Name="Points" NumberOfComponents="3" format="ascii">
0.0 5.0 0.0
0.0 4.0 0.0
0.0 3.0 0.0
0.0 2.0 0.0
0.0 1.0 0.0
0.0 0.0 0.0
1.0 5.0 0.0
1.0 4.0 0.0
1.0 3.0 0.0
1.0 2.0 0.0
1.0 1.0 0.0
1.0 0.0 0.0
2.0 5.0 0.0
2.0 4.0 0.0
2.0 3.0 0.0
2.0 2.0 0.0
2.0 1.0 0.0
2.0 0.0 0.0
3.0 5.0 0.0
3.0 4.0 0.0
3.0 3.0 0.0
3.0 2.0 0.0
3.0 1.0 0.0
3.0 0.0 0.0
4.0 5.0 0.0
4.0 4.0 0.0
4.0 3.0 0.0
4.0 2.0 0.0
4.0 1.0 0.0
4.0 0.0 0.0
5.0 5.0 0.0
5.0 4.0 0.0
5.0 3.0 0.0
5.0 2.0 0.0
5.0 1.0 0.0
5.0 0.0 0.0
6.0 5.0 0.0
6.0 4.0 0.0
6.0 3.0 0.0
6.0 2.0 0.0
6.0 1.0 0.0
6.0 0.0 0.0
7.0 5.0 0.0
7.0 4.0 0.0
7.0 3.0 0.0
7.0 2.0 0.0
7.0 1.0 0.0
7.0 0.0 0.0
8.0 5.0 0.0
8.0 4.0 0.0
8.0 3.0 0.0
8.0 2.0 0.0
8.0 1.0 0.0
8.0 0.0 0.0
9.0 5.0 0.0
9.0 4.0 0.0
9.0 3.0 0.0
9.0 2.0 0.0
9.0 1.0 0.0
9.0 0.0 0.0
10.0 5.0 0.0
10.0 4.0 0.0
10.0 3.0 0.0
10.0 2.0 0.0
10.0 1.0 0.0
10.0 0.0 0.0
11.0 5.0 0.0
11.0 4.0 0.0
11.0 3.0 0.0
11.0 2.0 0.0
11.0 1.0 0.0
11.0 0.0 0.0
12.0 5.0 0.0
12.0 4.0 0.0
12.0 3.0 0.0
12.0 2.0 0.0
12.0 1.0 0.0
12.0 0.0 0.0
13.0 5.0 0.0
13.0 4.0 0.0
13.0 3.0 0.0
13.0 2.0 0.0
13.0 1.0 0.0
13.0 0.0 0.0
14.0 5.0 0.0
14.0 4.0 0.0
14.0 3.0 0.0
14.0 2.0 0.0
14.0 1.0 0.0
14.0 0.0 0.0
15.0 5.0 0.0
15.0 4.0 0.0
15.0 3.0 0.0
15.0 2.0 0.0
15.0 1.0 0.0
15.0 0.0 0.0
16.0 5.0 0.0
16.0 4.0 0.0
16.0 3.0 0.0
16.0 2.0 0.0
16.0 1.0 0.0
16.0 0.0 0.0
17.0 5.0 0.0
17.0 4.0 0.0
17.0 3.0 0.0
17.0 2.0 0.0
17.0 1.0 0.0
17.0 0.0 0.0
18.0 5.0 0.0
18.0 4.0 0.0
18.0 3.0 0.0
18.0 2.0 0.0
18.0 1.0 0.0
18.0 0.0 0.0
19.0 5.0 0.0
19.0 4.0 0.0
19.0 3.0 0.0
19.0 2.0 0.0
19.0 1.0 0.0
19.0 0.0 0.0
20.0 5.0 0.0
20.0 4.0 0.0
20.0 3.0 0.0
20.0 2.0 0.0
20.0 1.0 0.0
20.0 0.0 0.0
</DataArray>
</Points>
<Cells>
<DataArray type="Int64" Name="connectivity" format="ascii">
0 1 7 6 
1 2 8 7 
2 3 9 8 
3 4 10 9 
4 5 11 10 
6 7 13 12 
7 8 14 13 
8 9 15 14 
9 10 16 15 
10 11 17 16 
12 13 19 18 
13 14 20 19 
14 15 21 20 
15 16 22 21 
16 17 23 22 
18 19 25 24 
19 20 26 25 
20 21 27 26 
21 22 28 27 
22 23 29 28 
24 25 31 30 
25 26 32 31 
26 27 33 32 
27 28 34 33 
28 29 35 34 
30 31 37 36 
31 32 38 37 
32 33 39 38 
33 34 40 39 
34 35 41 40 
36 37 43 42 
37 38 44 43 
38 39 45 44 
39 40 46 45 
40 41 47 46 
42 43 49 48 
43 44 50 49 
44 45 51 50 
45 46 52 51 
46 47 53 52 
48 49 55 54 
49 50 56 55 
50 51 57 56 
51 52 58 57 
52 53 59 58 
54 55 61 60 
55 56 62 61 
56 57 63 62 
57 58 64 63 
58 59 65 64 
60 61 67 66 
61 62 68 67 
62 63 69 68 
63 64 70 69 
64 65 71 70 
66 67 73 72 
67 68 74 73 
68 69 75 74 
69 70 76 75 
70 71 77 76 
72 73 79 78 
73 74 80 79 
74 75 81 80 
75 76 82 81 
76 77 83 82 
78 79 85 84 
79 80 86 85 
80 81 87 86 
81 82 88 87 
82 83 89 88 
84 85 91 90 
85 86 92 91 
86 87 93 92 
87 88 94 93 
88 89 95 94 
90 91 97 96 
91 92 98 97 
92 93 99 98 
93 94 100 99 
94 95 101 100 
96 97 103 102 
97 98 104 103 
98 99 105 104 
99 100 106 105 
100 101 107 106 
102 103 109 108 
103 104 110 109 
104 105 111 110 
105 106 112 111 
106 107 113 112 
108 109 115 114 
109 110 116 115 
110 111 117 116 
111 112 118 117 
112 113 119 118 
114 115 121 120 
115 116 122 121 
116 117 123 122 
117 118 124 123 
118 119 125 124 
</DataArray>
<DataArray type="Int64" Name="offsets" format="ascii">
4
8
12
16
20
24
28
32
36
40
44
48
52
56
60
64
68
72
76
80
84
88
92
96
100
104
108
112
116
120
124
128
132
136
140
144
148
152
156
160
164
168
172
176
180
184
188
192
196
200
204
208
212
216
220
224
228
232
236
240
244
248
252
256
260
264
268
272
276
280
284
288
292
296
300
304
308
312
316
320
324
328
332
336
340
344
348
352
356
360
364
368
372
376
380
384
388
392
396
400
</DataArray>
<DataArray type="UInt8" Name="types" format="ascii" RangeMin="9" RangeMax="9">
9
9
9
9
9
9
9
9
9
9
9
9
9
9
9
9
9
9
9
9
9
9
9
9
9
9
9
9
9
9
9
9
9
9
9
9
9
9
9
9
9
9
9
9
9
9
9
9
9
9
9
9
9
9
9
9
9
9
9
9
9
9
9
9
9
9
9
9
9
9
9
9
9
9
9
9
9
9
9
9
9
9
9
9
9
9
9
9
9
9
9
9
9
9
9
9
9
9
9
9
</DataArray>
</Cells>
</Piece>
</UnstructuredGrid>
</VTKFile>
