<?xml version="1.0"?>
<VTKFile type="UnstructuredGrid" version="0.1" byte_order="LittleEndian" compressor="vtkZLibDataCompressor">
<UnstructuredGrid>
<Piece NumberOfPoints="297" NumberOfCells="256">
<PointData>
<DataArray type="Float64" Name="displacement" NumberOfComponents="3" format="ascii" >
0.0 -0.0072  0.
-0.0115237197096 -0.00968460401055  0.
-0.0227035215377 -0.0150852247892  0.
-0.033516503756 -0.0232437801364  0.
-0.0439605179832 -0.0340634328524  0.
-0.0540367612739 -0.0474486933837  0.
-0.0637459848134 -0.0633071720402  0.
-0.0730885885871 -0.081547038964  0.
-0.082064738778 -0.102076686135  0.
-0.0906744958922 -0.124804538741  0.
-0.0989178778466 -0.149639020042  0.
-0.106794888401 -0.176488545578  0.
-0.11430552754 -0.205261525946  0.
-0.121449794697 -0.23586636934  0.
-0.128227689471 -0.268211482997  0.
-0.134639211658 -0.302205273824  0.
-0.140684361175 -0.337756148636  0.
-0.146363137998 -0.374772514217  0.
-0.151675542161 -0.413162777322  0.
-0.156621573823 -0.452835344671  0.
-0.161201233483 -0.493698623026  0.
-0.165414522421 -0.53566101959  0.
-0.169261443384 -0.578630943403  0.
-0.17274200088 -0.622516809311  0.
-0.175856197875 -0.66722704735  0.
-0.178604018415 -0.712670121622  0.
-0.180985365758 -0.758754552727  0.
-0.182999890392 -0.805388924169  0.
-0.184646540796 -0.852481628688  0.
-0.185922684215 -0.899940417261  0.
-0.186821635417 -0.947666654643  0.
-0.187333022157 -0.995557750182  0.
-0.187461279434 -1.0433196624  0.
0.0007546875 -0.00405  0.
-0.00792119786865 -0.00670403063578  0.
-0.0162984793535 -0.0121981884658  0.
-0.0244032148188 -0.0204546356205  0.
-0.0322341193743 -0.0313705064932  0.
-0.0397905307359 -0.0448520268434  0.
-0.0470722105514 -0.0608066848186  0.
-0.0540791073004 -0.0791427240588  0.
-0.0608112156269 -0.0997685411538  0.
-0.0672685387066 -0.122592564873  0.
-0.0734510795415 -0.14752321817  0.
-0.0793588397726 -0.174468916211  0.
-0.084991820119 -0.203338069302  0.
-0.0903500208462 -0.234039085501  0.
-0.0954334420355 -0.266480371988  0.
-0.100242083706 -0.300570335651  0.
-0.10477594586 -0.336217383301  0.
-0.1090350285 -0.373329921723  0.
-0.113019331638 -0.411816357673  0.
-0.11672885529 -0.45158509787  0.
-0.120163599463 -0.492544549049  0.
-0.123323564077 -0.534603118302  0.
-0.12620874869 -0.577669214332  0.
-0.128819151741 -0.621651251079  0.
-0.131154768768 -0.666457656747  0.
-0.133215588941 -0.711996891698  0.
-0.13500159071 -0.758177476864  0.
-0.136512744609 -0.804907988624  0.
-0.137749067894 -0.852096953025  0.
-0.138710983331 -0.899651699631  0.
-0.13940058264 -0.94747714671  0.
-0.139827950977 -0.995453139667  0.
-0.139957345259 -1.04349879028  0.
0.0008625 -0.0018  0.
-0.00492592741948 -0.00455589609829  0.
-0.0105179458646 -0.0101361028908  0.
-0.015920371804 -0.0184628567994  0.
-0.0211396972969 -0.0294476421908  0.
-0.0261764942484 -0.042997596835  0.
-0.0310305710434 -0.0590207716059  0.
-0.0357016895344 -0.0774254106521  0.
-0.0401897142874 -0.098119882914  0.
-0.0444945844225 -0.121012587247  0.
-0.048616276925 -0.146011931267  0.
-0.0525547845364 -0.173026323357  0.
-0.0563101055346 -0.201964171359  0.
-0.05988223978 -0.232733882584  0.
-0.0632711874303 -0.265243864049  0.
-0.066476948618 -0.299402522643  0.
-0.0694995234106 -0.335118265202  0.
-0.0723389118206 -0.37229949855  0.
-0.0749951137953 -0.410854629501  0.
-0.077468129152 -0.450692064887  0.
-0.0797579574335 -0.491720211618  0.
-0.0818645977099 -0.533847476884  0.
-0.0837880486257 -0.57698226867  0.
-0.0855283099757 -0.62103299689  0.
-0.0870853898851 -0.665908075196  0.
-0.0884593284534 -0.711515922707  0.
-0.0896502622257 -0.757764956116  0.
-0.0906585728117 -0.804563558223  0.
-0.0914851724799 -0.851819863464  0.
-0.09213177959 -0.899441418044  0.
-0.0926008414737 -0.947332371236  0.
-0.0928843818969 -0.995401595912  0.
-0.0929678704812 -1.04359199923  0.
0.0005390625 -0.00045  0.
-0.00235638827412 -0.00326276507313  0.
-0.00515364100417 -0.00889541562479  0.
-0.00785569151273 -0.0172677652108  0.
-0.0104650973374 -0.0282942278119  0.
-0.0129832010695 -0.0418851988705  0.
-0.0154100681514 -0.057949352428  0.
-0.0177455512416 -0.0763950766383  0.
-0.0199895352719 -0.0971307067555  0.
-0.0221419615977 -0.12006460601  0.
-0.0242028058719 -0.145105160102  0.
-0.0261720595768 -0.172160767544  0.
-0.028049720299 -0.201139832376  0.
-0.0298357875953 -0.231950760694  0.
-0.0315302615109 -0.264501959219  0.
-0.0331331421433 -0.298701834812  0.
-0.0346444295499 -0.334458794346  0.
-0.0360641237382 -0.371681244693  0.
-0.0373922246487 -0.410277592756  0.
-0.0386287320961 -0.450156245517  0.
-0.0397736456582 -0.491225610096  0.
-0.0408269645918 -0.533394093678  0.
-0.0417886882005 -0.576570102822  0.
-0.0426588181618 -0.620662040668  0.
-0.0434373671509 -0.665578298367  0.
-0.0441243842876 -0.711227232331  0.
-0.0447200182516 -0.75751711713  0.
-0.0452246454967 -0.804356055143  0.
-0.0456390336974 -0.851651953962  0.
-0.0459642339597 -0.899312628538  0.
-0.046199305789 -0.947248268027  0.
-0.0463397412277 -0.995378438058  0.
-0.0463812263502 -1.0436373673  0.
0.0 0.0  0.
8.10351325517e-17 -0.00283123208459  0.
1.67975246643e-16 -0.00848132220487  0.
2.58661360731e-16 -0.0168691908528  0.
3.5036461786e-16 -0.0279098221455  0.
4.43259704997e-16 -0.0415144487653  0.
5.36924123421e-16 -0.0575922435889  0.
6.31643536708e-16 -0.0760516450721  0.
7.2582672984e-16 -0.0968009863184  0.
8.19816357374e-16 -0.119748613768  0.
9.12961837084e-16 -0.144802903387  0.
1.00462884172e-15 -0.171872248955  0.
1.09137199048e-15 -0.200865052676  0.
1.18791850857e-15 -0.231689720034  0.
1.27710718274e-15 -0.264254657593  0.
1.36961376487e-15 -0.298468272196  0.
1.44337052322e-15 -0.334238970729  0.
1.54234161744e-15 -0.371475160087  0.
1.62534481528e-15 -0.410085247214  0.
1.70808667136e-15 -0.449977639161  0.
1.77885527029e-15 -0.491060743133  0.
1.87092191175e-15 -0.53324296627  0.
1.97330834225e-15 -0.576432714342  0.
2.05296709093e-15 -0.620538387074  0.
2.11296010209e-15 -0.665468364441  0.
2.15848023677e-15 -0.711130973607  0.
2.20092302524e-15 -0.757434419925  0.
2.24801675503e-15 -0.804286700874  0.
2.28654745092e-15 -0.851595590624  0.
2.29907045885e-15 -0.899269575537  0.
2.29908169218e-15 -0.947221078269  0.
2.34119823537e-15 -0.995371364973  0.
2.36229570935e-15 -1.043651288  0.
-0.0005390625 -0.00045  0.
0.00235638827412 -0.00326276507313  0.
0.00515364100417 -0.00889541562479  0.
0.00785569151273 -0.0172677652108  0.
0.0104650973374 -0.0282942278119  0.
0.0129832010695 -0.0418851988705  0.
0.0154100681514 -0.057949352428  0.
0.0177455512416 -0.0763950766383  0.
0.0199895352719 -0.0971307067555  0.
0.0221419615977 -0.12006460601  0.
0.0242028058719 -0.145105160102  0.
0.0261720595768 -0.172160767544  0.
0.028049720299 -0.201139832376  0.
0.0298357875953 -0.231950760694  0.
0.0315302615109 -0.264501959219  0.
0.0331331421433 -0.298701834812  0.
0.0346444295499 -0.334458794346  0.
0.0360641237382 -0.371681244693  0.
0.0373922246488 -0.410277592756  0.
0.0386287320961 -0.450156245517  0.
0.0397736456582 -0.491225610096  0.
0.0408269645918 -0.533394093678  0.
0.0417886882005 -0.576570102822  0.
0.0426588181618 -0.620662040668  0.
0.0434373671509 -0.665578298367  0.
0.0441243842876 -0.711227232331  0.
0.0447200182516 -0.75751711713  0.
0.0452246454967 -0.804356055143  0.
0.0456390336974 -0.851651953962  0.
0.0459642339597 -0.899312628538  0.
0.046199305789 -0.947248268027  0.
0.0463397412277 -0.995378438058  0.
0.0463812263502 -1.0436373673  0.
-0.0008625 -0.0018  0.
0.00492592741948 -0.00455589609829  0.
0.0105179458646 -0.0101361028908  0.
0.015920371804 -0.0184628567994  0.
0.0211396972969 -0.0294476421908  0.
0.0261764942484 -0.042997596835  0.
0.0310305710434 -0.0590207716059  0.
0.0357016895344 -0.0774254106521  0.
0.0401897142874 -0.098119882914  0.
0.0444945844225 -0.121012587247  0.
0.048616276925 -0.146011931267  0.
0.0525547845364 -0.173026323357  0.
0.0563101055346 -0.201964171359  0.
0.05988223978 -0.232733882584  0.
0.0632711874303 -0.265243864049  0.
0.0664769486181 -0.299402522643  0.
0.0694995234106 -0.335118265202  0.
0.0723389118206 -0.37229949855  0.
0.0749951137953 -0.410854629501  0.
0.077468129152 -0.450692064887  0.
0.0797579574335 -0.491720211618  0.
0.0818645977099 -0.533847476884  0.
0.0837880486257 -0.57698226867  0.
0.0855283099757 -0.62103299689  0.
0.0870853898851 -0.665908075196  0.
0.0884593284534 -0.711515922707  0.
0.0896502622257 -0.757764956116  0.
0.0906585728117 -0.804563558223  0.
0.0914851724799 -0.851819863464  0.
0.09213177959 -0.899441418044  0.
0.0926008414737 -0.947332371236  0.
0.092884381897 -0.995401595912  0.
0.0929678704812 -1.04359199923  0.
-0.0007546875 -0.00405  0.
0.00792119786865 -0.00670403063578  0.
0.0162984793535 -0.0121981884658  0.
0.0244032148188 -0.0204546356205  0.
0.0322341193743 -0.0313705064932  0.
0.0397905307359 -0.0448520268434  0.
0.0470722105514 -0.0608066848186  0.
0.0540791073004 -0.0791427240588  0.
0.0608112156269 -0.0997685411538  0.
0.0672685387066 -0.122592564873  0.
0.0734510795415 -0.14752321817  0.
0.0793588397726 -0.174468916211  0.
0.084991820119 -0.203338069302  0.
0.0903500208462 -0.234039085501  0.
0.0954334420355 -0.266480371988  0.
0.100242083706 -0.300570335651  0.
0.10477594586 -0.336217383301  0.
0.1090350285 -0.373329921723  0.
0.113019331638 -0.411816357673  0.
0.11672885529 -0.45158509787  0.
0.120163599463 -0.492544549049  0.
0.123323564077 -0.534603118302  0.
0.12620874869 -0.577669214332  0.
0.128819151741 -0.621651251079  0.
0.131154768768 -0.666457656747  0.
0.133215588941 -0.711996891698  0.
0.13500159071 -0.758177476864  0.
0.136512744609 -0.804907988624  0.
0.137749067894 -0.852096953025  0.
0.138710983331 -0.899651699631  0.
0.13940058264 -0.94747714671  0.
0.139827950977 -0.995453139667  0.
0.139957345259 -1.04349879028  0.
0.0 -0.0072  0.
0.0115237197096 -0.00968460401055  0.
0.0227035215377 -0.0150852247892  0.
0.033516503756 -0.0232437801364  0.
0.0439605179832 -0.0340634328524  0.
0.0540367612739 -0.0474486933837  0.
0.0637459848134 -0.0633071720402  0.
0.0730885885871 -0.081547038964  0.
0.082064738778 -0.102076686135  0.
0.0906744958922 -0.124804538741  0.
0.0989178778466 -0.149639020042  0.
0.106794888401 -0.176488545578  0.
0.11430552754 -0.205261525946  0.
0.121449794697 -0.23586636934  0.
0.128227689471 -0.268211482997  0.
0.134639211658 -0.302205273824  0.
0.140684361175 -0.337756148636  0.
0.146363137998 -0.374772514217  0.
0.151675542161 -0.413162777322  0.
0.156621573823 -0.452835344671  0.
0.161201233483 -0.493698623026  0.
0.165414522421 -0.53566101959  0.
0.169261443384 -0.578630943403  0.
0.17274200088 -0.622516809311  0.
0.175856197875 -0.66722704735  0.
0.178604018415 -0.712670121622  0.
0.180985365758 -0.758754552727  0.
0.182999890392 -0.805388924169  0.
0.184646540796 -0.852481628688  0.
0.185922684215 -0.899940417261  0.
0.186821635417 -0.947666654643  0.
0.187333022157 -0.995557750182  0.
0.187461279434 -1.0433196624  0.
</DataArray>
<DataArray type="Float64" Name="Nodal_sigma_xx" NumberOfComponents="1" format="ascii" >
-20176.3000723 
-19866.6117963 
-19237.1779315 
-18596.2422813 
-17953.8869795 
-17311.831873 
-16670.2291819 
-16028.8903496 
-15387.6731269 
-14746.502531 
-14105.3469671 
-13464.1951075 
-12823.0436387 
-12181.8918946 
-11540.7398963 
-10899.587759 
-10258.4355679 
-9617.28339147 
-8976.13133889 
-8334.97965934 
-7693.82888584 
-7052.67991199 
-6411.53341966 
-5770.38666314 
-5129.22193787 
-4487.97358866 
-3846.44642125 
-3204.15683416 
-2560.07208553 
-1912.70533518 
-1261.31999116 
-621.168303359 
-307.699746976 
-17310.6074135 
-17035.2581847 
-16485.9614883 
-15937.3626783 
-15387.8932511 
-14838.2438662 
-14288.6038487 
-13739.0025483 
-13189.4255856 
-12639.860176 
-12090.2992787 
-11540.7398672 
-10991.1808359 
-10441.6218532 
-9892.06284834 
-9342.50382134 
-8792.9447851 
-8243.38575587 
-7693.82676045 
-7144.26784977 
-6594.70910417 
-6045.15057145 
-5495.59194328 
-4946.03142483 
-4396.46256045 
-3846.86651916 
-3297.19786984 
-2747.36580869 
-2197.28279211 
-1647.13708425 
-1098.8350135 
-551.626847559 
-277.686369152 
-11558.138084 
-11365.7062904 
-10989.0396872 
-10622.1872297 
-10256.9213295 
-9891.38169748 
-9525.43276264 
-9159.2363173 
-8792.92555345 
-8426.57053086 
-8060.2011466 
-7693.82816648 
-7327.45477525 
-6961.08162835 
-6594.70871665 
-6228.33593505 
-5861.96320381 
-5495.59045823 
-5129.21759474 
-4762.84437858 
-4396.47031166 
-4030.09457154 
-3663.71657932 
-3297.33910253 
-2930.97920873 
-2564.69963452 
-2198.68458754 
-1833.39159642 
-1469.76371751 
-1109.20847386 
-751.708930469 
-384.843332253 
-196.164392954 
-5781.28008989 
-5685.33523597 
-5495.79215992 
-5310.62755811 
-5127.85860603 
-4945.33574558 
-4762.55624311 
-4579.55789927 
-4396.44393549 
-4213.28088105 
-4030.10026911 
-3846.91452025 
-3663.72774312 
-3480.54100206 
-3297.35443997 
-3114.16799767 
-2930.98160313 
-2747.79518582 
-2564.60863124 
-2381.42170029 
-2198.2339439 
-2015.04479791 
-1831.85458243 
-1648.66861147 
-1465.51005541 
-1282.45357106 
-1099.69866141 
-917.687919553 
-737.145616376 
-558.362068938 
-378.082150964 
-191.51931588 
-96.2506486498 
1.74850356416e-10 
1.78260961547e-10 
1.83376869245e-10 
1.86446413863e-10 
1.86901161214e-10 
1.85536919162e-10 
1.85650605999e-10 
1.85991666513e-10 
1.88379090105e-10 
1.87696969078e-10 
1.82012627192e-10 
1.78715708898e-10 
1.78829395736e-10 
1.83717929758e-10 
1.8064838514e-10 
1.63481672644e-10 
1.58593138622e-10 
1.56774149218e-10 
1.56319401867e-10 
1.70985003933e-10 
1.75077730091e-10 
1.666649041e-10 
1.42961198435e-10 
1.18802745419e-10 
1.13431042337e-10 
1.0376766113e-10 
1.27684529616e-10 
1.35855771077e-10 
8.26503310236e-11 
5.95719029661e-11 
4.29736246588e-11 
8.19966317067e-12 
-5.15143483426e-12 
5781.28008989 
5685.33523597 
5495.79215992 
5310.62755811 
5127.85860603 
4945.33574558 
4762.55624311 
4579.55789927 
4396.44393549 
4213.28088105 
4030.10026911 
3846.91452025 
3663.72774312 
3480.54100206 
3297.35443997 
3114.16799767 
2930.98160313 
2747.79518582 
2564.60863124 
2381.4217003 
2198.2339439 
2015.04479791 
1831.85458243 
1648.66861147 
1465.51005541 
1282.45357106 
1099.69866141 
917.687919553 
737.145616376 
558.362068938 
378.082150964 
191.51931588 
96.2506486498 
11558.138084 
11365.7062904 
10989.0396872 
10622.1872297 
10256.9213295 
9891.38169748 
9525.43276264 
9159.23631731 
8792.92555345 
8426.57053086 
8060.2011466 
7693.82816648 
7327.45477525 
6961.08162835 
6594.70871665 
6228.33593505 
5861.96320381 
5495.59045823 
5129.21759475 
4762.84437858 
4396.47031166 
4030.09457154 
3663.71657932 
3297.33910253 
2930.97920873 
2564.69963452 
2198.68458754 
1833.39159642 
1469.76371751 
1109.20847386 
751.708930469 
384.843332253 
196.164392954 
17310.6074135 
17035.2581848 
16485.9614883 
15937.3626783 
15387.8932511 
14838.2438662 
14288.6038487 
13739.0025483 
13189.4255856 
12639.860176 
12090.2992787 
11540.7398672 
10991.1808359 
10441.6218532 
9892.06284834 
9342.50382134 
8792.9447851 
8243.38575587 
7693.82676045 
7144.26784977 
6594.70910417 
6045.15057145 
5495.59194329 
4946.03142483 
4396.46256045 
3846.86651916 
3297.19786984 
2747.36580869 
2197.28279211 
1647.13708425 
1098.8350135 
551.626847559 
277.686369152 
20176.3000723 
19866.6117963 
19237.1779315 
18596.2422813 
17953.8869795 
17311.831873 
16670.2291819 
16028.8903496 
15387.6731269 
14746.502531 
14105.3469671 
13464.1951075 
12823.0436387 
12181.8918946 
11540.7398963 
10899.587759 
10258.4355679 
9617.28339147 
8976.13133889 
8334.97965934 
7693.82888584 
7052.67991199 
6411.53341966 
5770.38666314 
5129.22193787 
4487.97358866 
3846.44642125 
3204.15683416 
2560.07208553 
1912.70533518 
1261.31999116 
621.168303359 
307.699746976 
</DataArray>
<DataArray type="Float64" Name="Nodal_sigma_yy" NumberOfComponents="1" format="ascii" >
77.6833530827 
39.1079975943 
0.741889350821 
0.253172872115 
-0.334206506988 
-0.176231234395 
-0.0908102904484 
-0.0360984479792 
-0.0125705988371 
-0.00346466137785 
-0.000599861809633 
9.33842632094e-05 
0.000155207428634 
9.6657209383e-05 
4.58258591607e-05 
1.72443527617e-05 
-1.5524428818e-06 
-3.10290832886e-05 
-0.000105343731093 
-0.000284358092927 
-0.000644698909923 
-0.00116182784984 
-0.00119471996197 
0.00207029847866 
0.0180994402937 
0.0710801353857 
0.224671051571 
0.564257787719 
1.480624557 
1.99782673532 
7.77600765899 
-76.5499522052 
-166.82729423 
71.1717320652 
41.0569753072 
6.18031503049 
0.481005005268 
-0.467673114854 
-0.377111581142 
-0.199722351268 
-0.0856948147297 
-0.0311138649871 
-0.0093068992806 
-0.00196730875706 
-9.0746763135e-06 
0.00028689771915 
0.000205569944342 
0.000103503988839 
3.9408182829e-05 
-6.73368947446e-06 
-7.97641862107e-05 
-0.000255345162685 
-0.00065634283618 
-0.00140531677502 
-0.00228345261354 
-0.00143466206055 
0.0085049378045 
0.0501428574885 
0.181693116015 
0.530159958531 
1.31368920274 
2.78906517113 
4.37064083237 
1.27957116671 
-71.9242740291 
-141.397189 
53.1913561164 
36.6141044522 
11.7085073841 
1.5419164587 
-0.512462574595 
-0.597754812854 
-0.344785105211 
-0.155487716518 
-0.0588960185531 
-0.0186113399399 
-0.0044279853808 
-0.000368532283574 
0.000398641145637 
0.000338697977043 
0.000180823686861 
6.95903295025e-05 
-1.69541760329e-05 
-0.000154927957169 
-0.000474096954107 
-0.00116943481515 
-0.00237299612427 
-0.0034440316917 
-0.000460378682988 
0.0209470084917 
0.102872003889 
0.349321869442 
0.972702839591 
2.28896095019 
4.32156008359 
5.24244126651 
-7.63016197913 
-55.5267785826 
-90.7870216605 
27.9479798829 
20.4266075469 
8.23518505316 
1.79488864497 
-0.244055083365 
-0.439673224298 
-0.274451999658 
-0.128426639396 
-0.0501179800108 
-0.0164055692924 
-0.00417027086755 
-0.000514346576757 
0.000256723527066 
0.000259412780615 
0.000145249093144 
5.63594413663e-05 
-1.68313718873e-05 
-0.000134090483392 
-0.000398158432482 
-0.000953469006497 
-0.00185531226807 
-0.00242894811141 
0.00089674064624 
0.0205951778651 
0.0920897023491 
0.300214845232 
0.810109030473 
1.82455628776 
3.16769900654 
2.30408437161 
-7.25980068039 
-29.3392779907 
-43.4041135242 
4.22062385041e-11 
3.42268435816e-11 
2.06270556191e-11 
1.22923893286e-11 
6.21014351054e-12 
-2.84217094304e-13 
-4.19930756834e-12 
-4.12114786741e-12 
4.46931380793e-12 
2.55084842138e-12 
-1.13047349259e-11 
-8.88888962436e-12 
-8.82494077814e-12 
-4.12114786741e-13 
-1.31450406116e-12 
-2.03428385248e-11 
-4.26467750003e-11 
-7.09405867383e-11 
-5.02922148371e-11 
3.0450308941e-11 
3.86606302527e-11 
-4.71196415219e-11 
-9.58877421908e-11 
-7.5390360621e-11 
-3.53512774609e-11 
3.38395977906e-12 
1.07709396957e-10 
1.79529280331e-10 
1.49694034945e-10 
1.56650248329e-10 
4.06501499128e-11 
-1.08566489132e-10 
-1.1256950927e-10 
-27.9479798829 
-20.4266075469 
-8.23518505312 
-1.79488864495 
0.244055083372 
0.439673224299 
0.274451999663 
0.128426639401 
0.050117980002 
0.0164055692758 
0.00417027085466 
0.000514346562156 
-0.000256723552063 
-0.000259412812916 
-0.000145249116855 
-5.63594781937e-05 
1.68312856985e-05 
0.000134090368483 
0.000398158332338 
0.000953468990108 
0.001855312272 
0.00242894805407 
-0.000896740725118 
-0.020595177954 
-0.0920897024292 
-0.300214845266 
-0.810109030439 
-1.82455628772 
-3.16769900645 
-2.30408437145 
7.25980068035 
29.3392779904 
43.4041135239 
-53.1913561163 
-36.6141044521 
-11.7085073841 
-1.54191645869 
0.512462574595 
0.597754812854 
0.34478510521 
0.155487716516 
0.0588960185407 
0.0186113399184 
0.00442798537654 
0.000368532272688 
-0.000398641189719 
-0.000338698028258 
-0.000180823746206 
-6.95904174961e-05 
1.69540599018e-05 
0.000154927853089 
0.000474096851391 
0.00116943467529 
0.00237299603818 
0.00344403172781 
0.000460378711793 
-0.0209470085188 
-0.102872003871 
-0.349321869458 
-0.972702839739 
-2.28896095036 
-4.32156008359 
-5.24244126642 
7.63016197906 
55.5267785825 
90.7870216604 
-71.1717320652 
-41.0569753071 
-6.18031503048 
-0.481005005269 
0.467673114854 
0.377111581141 
0.199722351256 
0.0856948147189 
0.0311138649931 
0.00930689928765 
0.001967308747 
9.07463453359e-06 
-0.000286897819137 
-0.000205570033188 
-0.00010350405023 
-3.94082833282e-05 
6.73358192671e-06 
7.97641451982e-05 
0.000255345208274 
0.000656342870258 
0.00140531680671 
0.002283452661 
0.00143466202826 
-0.00850493787564 
-0.0501428574845 
-0.181693115999 
-0.530159958579 
-1.31368920278 
-2.78906517112 
-4.37064083229 
-1.27957116666 
71.9242740291 
141.397189 
-77.6833530826 
-39.1079975943 
-0.741889350822 
-0.253172872118 
0.33420650699 
0.176231234395 
0.0908102904432 
0.0360984479787 
0.0125705988473 
0.00346466139672 
0.000599861794853 
-9.33843364237e-05 
-0.000155207572789 
-9.6657348422e-05 
-4.5825908046e-05 
-1.7244410742e-05 
1.5523729644e-06 
3.10291214873e-05 
0.000105343927999 
0.00028435834713 
0.00064469907602 
0.00116182785212 
0.00119471987381 
-0.00207029859382 
-0.018099440411 
-0.0710801353971 
-0.224671051518 
-0.564257787736 
-1.4806245571 
-1.99782673533 
-7.77600765895 
76.5499522051 
166.82729423 
</DataArray>
<DataArray type="Float64" Name="Nodal_sigma_xy" NumberOfComponents="1" format="ascii" >
-300.548194394 
-320.892286347 
-343.054993098 
-344.712965984 
-344.228418688 
-343.708378163 
-343.419701377 
-343.290469828 
-343.241503261 
-343.225980064 
-343.222259742 
-343.221933378 
-343.222256106 
-343.222534209 
-343.222684346 
-343.222749386 
-343.222766241 
-343.222735609 
-343.222601084 
-343.222205968 
-343.221237579 
-343.219280935 
-343.21646691 
-343.216208324 
-343.233865992 
-343.319690643 
-343.610407587 
-344.42550093 
-346.42531305 
-350.633114015 
-357.672180837 
-334.523465142 
-307.137491659 
-593.897901987 
-603.273495987 
-615.603000767 
-618.8195341 
-618.884171036 
-618.505456403 
-618.226943284 
-618.086702596 
-618.028701684 
-618.008455913 
-618.002735004 
-618.001692709 
-618.001805675 
-618.002041533 
-618.002192514 
-618.002262856 
-618.002278699 
-618.002235066 
-618.002067945 
-618.001616808 
-618.000605689 
-617.998823701 
-617.997129661 
-618.001033445 
-618.03101179 
-618.147604488 
-618.501664321 
-619.406598103 
-621.328470039 
-624.418229419 
-624.928662437 
-610.042257582 
-596.455298342 
-1082.5775598 
-1077.5939744 
-1073.79970434 
-1075.50979001 
-1076.09691421 
-1076.12865403 
-1076.06077808 
-1076.00946214 
-1075.98360566 
-1075.97296417 
-1075.96927368 
-1075.96824119 
-1075.9680586 
-1075.96808293 
-1075.96812708 
-1075.96815268 
-1075.96815618 
-1075.96813035 
-1075.96804903 
-1075.96786229 
-1075.96752862 
-1075.96719676 
-1075.96785895 
-1075.97324501 
-1075.99446649 
-1076.05935949 
-1076.22520086 
-1076.56950074 
-1077.02761207 
-1076.60706754 
-1072.1242758 
-1074.63303553 
-1080.97265943 
-1374.85209801 
-1365.47650401 
-1353.14699923 
-1349.9304659 
-1349.86582896 
-1350.2445436 
-1350.52305671 
-1350.6632974 
-1350.72129831 
-1350.74154409 
-1350.74726499 
-1350.74830729 
-1350.74819432 
-1350.74795847 
-1350.74780748 
-1350.74773714 
-1350.7477213 
-1350.74776493 
-1350.74793205 
-1350.74838319 
-1350.74939431 
-1350.7511763 
-1350.75287034 
-1350.74896655 
-1350.71898821 
-1350.60239551 
-1350.24833568 
-1349.3434019 
-1347.42152996 
-1344.33177058 
-1343.82133756 
-1358.70774242 
-1372.29470166 
-1471.796686 
-1461.41976486 
-1446.84559822 
-1441.76745399 
-1441.0777529 
-1441.53431377 
-1441.95874246 
-1442.19060589 
-1442.29128543 
-1442.3280916 
-1442.3391929 
-1442.34158424 
-1442.34162669 
-1442.34129993 
-1442.3410615 
-1442.34094526 
-1442.34092139 
-1442.34100369 
-1442.34130085 
-1442.34206945 
-1442.34370518 
-1442.34632554 
-1442.3478152 
-1442.33730166 
-1442.27720102 
-1442.06159038 
-1441.43919069 
-1439.93549758 
-1437.0194628 
-1433.6527509 
-1435.57926757 
-1453.7104638 
-1468.41718949 
-1374.85209801 
-1365.47650401 
-1353.14699923 
-1349.9304659 
-1349.86582896 
-1350.2445436 
-1350.52305671 
-1350.6632974 
-1350.72129831 
-1350.74154409 
-1350.74726499 
-1350.74830729 
-1350.74819432 
-1350.74795847 
-1350.74780748 
-1350.74773714 
-1350.7477213 
-1350.74776493 
-1350.74793205 
-1350.74838319 
-1350.74939431 
-1350.7511763 
-1350.75287034 
-1350.74896655 
-1350.71898821 
-1350.60239551 
-1350.24833568 
-1349.3434019 
-1347.42152996 
-1344.33177058 
-1343.82133756 
-1358.70774242 
-1372.29470166 
-1082.5775598 
-1077.5939744 
-1073.79970434 
-1075.50979001 
-1076.09691421 
-1076.12865403 
-1076.06077808 
-1076.00946214 
-1075.98360566 
-1075.97296417 
-1075.96927368 
-1075.96824119 
-1075.9680586 
-1075.96808293 
-1075.96812708 
-1075.96815268 
-1075.96815618 
-1075.96813035 
-1075.96804903 
-1075.96786229 
-1075.96752862 
-1075.96719676 
-1075.96785895 
-1075.97324501 
-1075.99446649 
-1076.05935949 
-1076.22520086 
-1076.56950074 
-1077.02761207 
-1076.60706754 
-1072.1242758 
-1074.63303553 
-1080.97265943 
-593.897901987 
-603.273495987 
-615.603000767 
-618.8195341 
-618.884171036 
-618.505456403 
-618.226943284 
-618.086702596 
-618.028701684 
-618.008455913 
-618.002735004 
-618.001692709 
-618.001805675 
-618.002041533 
-618.002192514 
-618.002262856 
-618.002278699 
-618.002235066 
-618.002067945 
-618.001616808 
-618.000605689 
-617.998823701 
-617.997129661 
-618.001033445 
-618.03101179 
-618.147604488 
-618.501664321 
-619.406598103 
-621.328470039 
-624.418229419 
-624.928662438 
-610.042257582 
-596.455298342 
-300.548194394 
-320.892286347 
-343.054993098 
-344.712965984 
-344.228418688 
-343.708378163 
-343.419701377 
-343.290469828 
-343.241503261 
-343.225980064 
-343.222259742 
-343.221933378 
-343.222256106 
-343.222534209 
-343.222684346 
-343.222749386 
-343.222766241 
-343.222735609 
-343.222601085 
-343.222205968 
-343.221237579 
-343.219280935 
-343.21646691 
-343.216208324 
-343.233865992 
-343.319690643 
-343.610407587 
-344.42550093 
-346.42531305 
-350.633114015 
-357.672180837 
-334.523465142 
-307.137491659 
</DataArray>
</PointData>
<CellData>
</CellData>
<Points>
<DataArray type="Float64" Name="Points" NumberOfComponents="3" format="ascii">
0.0 -2.0 0.0
0.5 -2.0 0.0
1.0 -2.0 0.0
1.5 -2.0 0.0
2.0 -2.0 0.0
2.5 -2.0 0.0
3.0 -2.0 0.0
3.5 -2.0 0.0
4.0 -2.0 0.0
4.5 -2.0 0.0
5.0 -2.0 0.0
5.5 -2.0 0.0
6.0 -2.0 0.0
6.5 -2.0 0.0
7.0 -2.0 0.0
7.5 -2.0 0.0
8.0 -2.0 0.0
8.5 -2.0 0.0
9.0 -2.0 0.0
9.5 -2.0 0.0
10.0 -2.0 0.0
10.5 -2.0 0.0
11.0 -2.0 0.0
11.5 -2.0 0.0
12.0 -2.0 0.0
12.5 -2.0 0.0
13.0 -2.0 0.0
13.5 -2.0 0.0
14.0 -2.0 0.0
14.5 -2.0 0.0
15.0 -2.0 0.0
15.5 -2.0 0.0
16.0 -2.0 0.0
0.0 -1.5 0.0
0.5 -1.5 0.0
1.0 -1.5 0.0
1.5 -1.5 0.0
2.0 -1.5 0.0
2.5 -1.5 0.0
3.0 -1.5 0.0
3.5 -1.5 0.0
4.0 -1.5 0.0
4.5 -1.5 0.0
5.0 -1.5 0.0
5.5 -1.5 0.0
6.0 -1.5 0.0
6.5 -1.5 0.0
7.0 -1.5 0.0
7.5 -1.5 0.0
8.0 -1.5 0.0
8.5 -1.5 0.0
9.0 -1.5 0.0
9.5 -1.5 0.0
10.0 -1.5 0.0
10.5 -1.5 0.0
11.0 -1.5 0.0
11.5 -1.5 0.0
12.0 -1.5 0.0
12.5 -1.5 0.0
13.0 -1.5 0.0
13.5 -1.5 0.0
14.0 -1.5 0.0
14.5 -1.5 0.0
15.0 -1.5 0.0
15.5 -1.5 0.0
16.0 -1.5 0.0
0.0 -1.0 0.0
0.5 -1.0 0.0
1.0 -1.0 0.0
1.5 -1.0 0.0
2.0 -1.0 0.0
2.5 -1.0 0.0
3.0 -1.0 0.0
3.5 -1.0 0.0
4.0 -1.0 0.0
4.5 -1.0 0.0
5.0 -1.0 0.0
5.5 -1.0 0.0
6.0 -1.0 0.0
6.5 -1.0 0.0
7.0 -1.0 0.0
7.5 -1.0 0.0
8.0 -1.0 0.0
8.5 -1.0 0.0
9.0 -1.0 0.0
9.5 -1.0 0.0
10.0 -1.0 0.0
10.5 -1.0 0.0
11.0 -1.0 0.0
11.5 -1.0 0.0
12.0 -1.0 0.0
12.5 -1.0 0.0
13.0 -1.0 0.0
13.5 -1.0 0.0
14.0 -1.0 0.0
14.5 -1.0 0.0
15.0 -1.0 0.0
15.5 -1.0 0.0
16.0 -1.0 0.0
0.0 -0.5 0.0
0.5 -0.5 0.0
1.0 -0.5 0.0
1.5 -0.5 0.0
2.0 -0.5 0.0
2.5 -0.5 0.0
3.0 -0.5 0.0
3.5 -0.5 0.0
4.0 -0.5 0.0
4.5 -0.5 0.0
5.0 -0.5 0.0
5.5 -0.5 0.0
6.0 -0.5 0.0
6.5 -0.5 0.0
7.0 -0.5 0.0
7.5 -0.5 0.0
8.0 -0.5 0.0
8.5 -0.5 0.0
9.0 -0.5 0.0
9.5 -0.5 0.0
10.0 -0.5 0.0
10.5 -0.5 0.0
11.0 -0.5 0.0
11.5 -0.5 0.0
12.0 -0.5 0.0
12.5 -0.5 0.0
13.0 -0.5 0.0
13.5 -0.5 0.0
14.0 -0.5 0.0
14.5 -0.5 0.0
15.0 -0.5 0.0
15.5 -0.5 0.0
16.0 -0.5 0.0
0.0 0.0 0.0
0.5 0.0 0.0
1.0 0.0 0.0
1.5 0.0 0.0
2.0 0.0 0.0
2.5 0.0 0.0
3.0 0.0 0.0
3.5 0.0 0.0
4.0 0.0 0.0
4.5 0.0 0.0
5.0 0.0 0.0
5.5 0.0 0.0
6.0 0.0 0.0
6.5 0.0 0.0
7.0 0.0 0.0
7.5 0.0 0.0
8.0 0.0 0.0
8.5 0.0 0.0
9.0 0.0 0.0
9.5 0.0 0.0
10.0 0.0 0.0
10.5 0.0 0.0
11.0 0.0 0.0
11.5 0.0 0.0
12.0 0.0 0.0
12.5 0.0 0.0
13.0 0.0 0.0
13.5 0.0 0.0
14.0 0.0 0.0
14.5 0.0 0.0
15.0 0.0 0.0
15.5 0.0 0.0
16.0 0.0 0.0
0.0 0.5 0.0
0.5 0.5 0.0
1.0 0.5 0.0
1.5 0.5 0.0
2.0 0.5 0.0
2.5 0.5 0.0
3.0 0.5 0.0
3.5 0.5 0.0
4.0 0.5 0.0
4.5 0.5 0.0
5.0 0.5 0.0
5.5 0.5 0.0
6.0 0.5 0.0
6.5 0.5 0.0
7.0 0.5 0.0
7.5 0.5 0.0
8.0 0.5 0.0
8.5 0.5 0.0
9.0 0.5 0.0
9.5 0.5 0.0
10.0 0.5 0.0
10.5 0.5 0.0
11.0 0.5 0.0
11.5 0.5 0.0
12.0 0.5 0.0
12.5 0.5 0.0
13.0 0.5 0.0
13.5 0.5 0.0
14.0 0.5 0.0
14.5 0.5 0.0
15.0 0.5 0.0
15.5 0.5 0.0
16.0 0.5 0.0
0.0 1.0 0.0
0.5 1.0 0.0
1.0 1.0 0.0
1.5 1.0 0.0
2.0 1.0 0.0
2.5 1.0 0.0
3.0 1.0 0.0
3.5 1.0 0.0
4.0 1.0 0.0
4.5 1.0 0.0
5.0 1.0 0.0
5.5 1.0 0.0
6.0 1.0 0.0
6.5 1.0 0.0
7.0 1.0 0.0
7.5 1.0 0.0
8.0 1.0 0.0
8.5 1.0 0.0
9.0 1.0 0.0
9.5 1.0 0.0
10.0 1.0 0.0
10.5 1.0 0.0
11.0 1.0 0.0
11.5 1.0 0.0
12.0 1.0 0.0
12.5 1.0 0.0
13.0 1.0 0.0
13.5 1.0 0.0
14.0 1.0 0.0
14.5 1.0 0.0
15.0 1.0 0.0
15.5 1.0 0.0
16.0 1.0 0.0
0.0 1.5 0.0
0.5 1.5 0.0
1.0 1.5 0.0
1.5 1.5 0.0
2.0 1.5 0.0
2.5 1.5 0.0
3.0 1.5 0.0
3.5 1.5 0.0
4.0 1.5 0.0
4.5 1.5 0.0
5.0 1.5 0.0
5.5 1.5 0.0
6.0 1.5 0.0
6.5 1.5 0.0
7.0 1.5 0.0
7.5 1.5 0.0
8.0 1.5 0.0
8.5 1.5 0.0
9.0 1.5 0.0
9.5 1.5 0.0
10.0 1.5 0.0
10.5 1.5 0.0
11.0 1.5 0.0
11.5 1.5 0.0
12.0 1.5 0.0
12.5 1.5 0.0
13.0 1.5 0.0
13.5 1.5 0.0
14.0 1.5 0.0
14.5 1.5 0.0
15.0 1.5 0.0
15.5 1.5 0.0
16.0 1.5 0.0
0.0 2.0 0.0
0.5 2.0 0.0
1.0 2.0 0.0
1.5 2.0 0.0
2.0 2.0 0.0
2.5 2.0 0.0
3.0 2.0 0.0
3.5 2.0 0.0
4.0 2.0 0.0
4.5 2.0 0.0
5.0 2.0 0.0
5.5 2.0 0.0
6.0 2.0 0.0
6.5 2.0 0.0
7.0 2.0 0.0
7.5 2.0 0.0
8.0 2.0 0.0
8.5 2.0 0.0
9.0 2.0 0.0
9.5 2.0 0.0
10.0 2.0 0.0
10.5 2.0 0.0
11.0 2.0 0.0
11.5 2.0 0.0
12.0 2.0 0.0
12.5 2.0 0.0
13.0 2.0 0.0
13.5 2.0 0.0
14.0 2.0 0.0
14.5 2.0 0.0
15.0 2.0 0.0
15.5 2.0 0.0
16.0 2.0 0.0
</DataArray>
</Points>
<Cells>
<DataArray type="Int64" Name="connectivity" format="ascii">
0 1 34 33 
1 2 35 34 
2 3 36 35 
3 4 37 36 
4 5 38 37 