<?xml version="1.0"?>
<VTKFile type="UnstructuredGrid" version="0.1" byte_order="LittleEndian" compressor="vtkZLibDataCompressor">
<UnstructuredGrid>
<Piece NumberOfPoints="297" NumberOfCells="256">
<PointData>
<DataArray type="Float64" Name="displacement" NumberOfComponents="3" format="ascii" >
0.0 -0.0324  0.
-0.051856738693 -0.0435807180475  0.
-0.10216584692 -0.0678835115515  0.
-0.150824266902 -0.104597010614  0.
-0.197822330925 -0.153285447836  0.
-0.243165425733 -0.213519120227  0.
-0.28685693166 -0.284882274181  0.
-0.328898648642 -0.366961675338  0.
-0.369291324501 -0.459345087606  0.
-0.408035231515 -0.561620424335  0.
-0.44513045031 -0.673375590191  0.
-0.480576997803 -0.794198455101  0.
-0.514374873931 -0.923676866756  0.
-0.546524076139 -1.06139866203  0.
-0.577024602619 -1.20695167349  0.
-0.605876452461 -1.35992373221  0.
-0.633079625288 -1.51990266886  0.
-0.658634120992 -1.68647631398  0.
-0.682539939723 -1.85923249795  0.
-0.704797082205 -2.03775905102  0.
-0.725405550676 -2.22164380362  0.
-0.744365350893 -2.41047458816  0.
-0.761676495227 -2.60383924532  0.
-0.777339003959 -2.8013256419  0.
-0.791352890437 -3.00252171308  0.
-0.803718082868 -3.2070155473  0.
-0.81443414591 -3.41439548728  0.
-0.823499506766 -3.62425015876  0.
-0.830909433583 -3.8361673291  0.
-0.83665207897 -4.04973187767  0.
-0.840697359376 -4.26449994589  0.
-0.842998599706 -4.48000987582  0.
-0.843575757452 -4.6949384808  0.
0.00339609375 -0.018225  0.
-0.0356453904089 -0.030168137861  0.
-0.073343157091 -0.0548918480959  0.
-0.109814466685 -0.0920458602922  0.
-0.145053537184 -0.141167279219  0.
-0.179057388312 -0.201834120795  0.
-0.211824947482 -0.273630081684  0.
-0.243355982852 -0.356142258265  0.
-0.273650470321 -0.448958435192  0.
-0.30270842418 -0.55166654193  0.
-0.330529857937 -0.663854481764  0.
-0.357114778977 -0.785110122948  0.
-0.382463190536 -0.915021311859  0.
-0.406575093808 -1.05317588476  0.
-0.42945048916 -1.19916167395  0.
-0.451089376676 -1.35256651043  0.
-0.471491756368 -1.51297822485  0.
-0.490657628252 -1.67998464775  0.
-0.508586992372 -1.85317360953  0.
-0.525279848805 -2.03213294042  0.
-0.540736197586 -2.21645047072  0.
-0.554956038349 -2.40571403236  0.
-0.567939369106 -2.5995114645  0.
-0.579686182834 -2.79743062986  0.
-0.590196459454 -2.99905945536  0.
-0.599470150234 -3.20398601264  0.
-0.607507158195 -3.41179864589  0.
-0.61430735074 -3.62208594881  0.
-0.619870805525 -3.83443628861  0.
-0.624199424991 -4.04843264834  0.
-0.627302621882 -4.2636471602  0.
-0.629225779396 -4.47953912851  0.
-0.629808053665 -4.69574455628  0.
0.00388125 -0.0081  0.
-0.0221666733877 -0.0205015324423  0.
-0.0473307563906 -0.0456124630087  0.
-0.0716416731182 -0.0830828555971  0.
-0.0951286378362 -0.132514389859  0.
-0.117794224118 -0.193489185758  0.
-0.139637569696 -0.265593472227  0.
-0.160657602905 -0.348414347935  0.
-0.180853714294 -0.441539473113  0.
-0.200225629901 -0.544556642613  0.
-0.218773246163 -0.657053690704  0.
-0.236496530414 -0.778618455105  0.
-0.253395474906 -0.908838771116  0.
-0.26947007901 -1.04730247163  0.
-0.284720343436 -1.19359738822  0.
-0.299146268781 -1.34731135189  0.
-0.312747855348 -1.50803219341  0.
-0.325525103193 -1.67534774348  0.
-0.337478012079 -1.84884583276  0.
-0.348606581184 -2.02811429199  0.
-0.358910808451 -2.21274095228  0.
-0.368390689695 -2.40231364598  0.
-0.377046218816 -2.59642020902  0.
-0.384877394891 -2.794648486  0.
-0.391884254483 -2.99658633838  0.
-0.39806697804 -3.20182165218  0.
-0.403426180016 -3.40994230252  0.
-0.407963577653 -3.62053601201  0.
-0.41168327616 -3.83318938559  0.
-0.414593008155 -4.0474863812  0.
-0.416703786632 -4.26299567056  0.
-0.417979718536 -4.4793071816  0.
-0.418355417166 -4.69616399652  0.
0.00242578125 -0.002025  0.
-0.0106037472335 -0.0146824428291  0.
-0.0231913845188 -0.0400293703116  0.
-0.0353506118073 -0.0777049434487  0.
-0.0470929380183 -0.127324025154  0.
-0.058424404813 -0.188483394917  0.
-0.0693453066812 -0.260772085926  0.
-0.0798549805871 -0.343777844873  0.
-0.0899529087238 -0.4370881804  0.
-0.0996388271898 -0.540290727046  0.
-0.108912626424 -0.652973220461  0.
-0.117774268096 -0.774723453949  0.
-0.126223741346 -0.905129245694  0.
-0.134261044179 -1.04377842312  0.
-0.141886176799 -1.19025881649  0.
-0.149099139645 -1.34415825666  0.
-0.155899932975 -1.50506457456  0.
-0.162288556822 -1.67256560112  0.
-0.168265010919 -1.8462491674  0.
-0.173829294433 -2.02570310483  0.
-0.178981405462 -2.21051524543  0.
-0.183721340663 -2.40027342155  0.
-0.188049096902 -2.5945654627  0.
-0.191964681728 -2.79297918301  0.
-0.195468152179 -2.99510234265  0.
-0.198559729294 -3.20052254549  0.
-0.201240082132 -3.40882702709  0.
-0.203510904735 -3.61960224814  0.
-0.205375651638 -3.83243379283  0.
-0.206839052819 -4.04690682842  0.
-0.20789687605 -4.26261720612  0.
-0.208528835525 -4.47920297126  0.
-0.208715518576 -4.69636815285  0.
0.0 0.0  0.
7.98791985311e-17 -0.0127405443807  0.
1.6582284368e-16 -0.0381659499219  0.
2.58292073089e-16 -0.0759113588377  0.
3.48573020215e-16 -0.125594199655  0.
4.41196190274e-16 -0.186815019444  0.
5.32425091858e-16 -0.25916509615  0.
6.26223876922e-16 -0.342232402825  0.
7.2346392833e-16 -0.435604438433  0.
8.22746856108e-16 -0.538868761955  0.
9.15091948664e-16 -0.651613065242  0.
9.90687337401e-16 -0.773425120298  0.
1.09143996833e-15 -0.903892737041  0.
1.20705006977e-15 -1.04260374015  0.
1.28027774801e-15 -1.18914595917  0.
1.36647452163e-15 -1.34310722488  0.
1.45767464954e-15 -1.50407536828  0.
1.57223282189e-15 -1.67163822039  0.
1.6716193619e-15 -1.84538361246  0.
1.7271827555e-15 -2.02489937622  0.
1.77510902868e-15 -2.2097733441  0.
1.87979158242e-15 -2.39959334822  0.
1.96990145925e-15 -2.59394721454  0.
2.03456208149e-15 -2.79242274183  0.
2.16206713215e-15 -2.99460763999  0.
2.15652073422e-15 -3.20008938123  0.
2.18609230264e-15 -3.40845488967  0.
2.25277611009e-15 -3.61929015394  0.
2.23003541837e-15 -3.83218015781  0.
2.21546756294e-15 -4.04671308992  0.
2.20039740849e-15 -4.26249485221  0.
2.26492177901e-15 -4.47917114238  0.
2.31164454945e-15 -4.69643079601  0.
-0.00242578125 -0.002025  0.
0.0106037472335 -0.0146824428291  0.
0.0231913845188 -0.0400293703116  0.
0.0353506118073 -0.0777049434487  0.
0.0470929380183 -0.127324025154  0.
0.058424404813 -0.188483394917  0.
0.0693453066812 -0.260772085926  0.
0.0798549805871 -0.343777844873  0.
0.0899529087238 -0.4370881804  0.
0.0996388271898 -0.540290727046  0.
0.108912626424 -0.652973220461  0.
0.117774268096 -0.774723453949  0.
0.126223741346 -0.905129245694  0.
0.134261044179 -1.04377842312  0.
0.141886176799 -1.19025881649  0.
0.149099139645 -1.34415825666  0.
0.155899932975 -1.50506457456  0.
0.162288556822 -1.67256560112  0.
0.168265010919 -1.8462491674  0.
0.173829294433 -2.02570310483  0.
0.178981405462 -2.21051524543  0.
0.183721340663 -2.40027342155  0.
0.188049096902 -2.5945654627  0.
0.191964681728 -2.79297918301  0.
0.195468152179 -2.99510234265  0.
0.198559729294 -3.20052254549  0.
0.201240082132 -3.40882702709  0.
0.203510904735 -3.61960224814  0.
0.205375651638 -3.83243379283  0.
0.206839052819 -4.04690682842  0.
0.20789687605 -4.26261720612  0.
0.208528835525 -4.47920297126  0.
0.208715518576 -4.69636815285  0.
-0.00388125 -0.0081  0.
0.0221666733877 -0.0205015324423  0.
0.0473307563906 -0.0456124630087  0.
0.0716416731182 -0.0830828555971  0.
0.0951286378362 -0.132514389859  0.
0.117794224118 -0.193489185758  0.
0.139637569696 -0.265593472227  0.
0.160657602905 -0.348414347935  0.
0.180853714294 -0.441539473113  0.
0.200225629901 -0.544556642613  0.
0.218773246163 -0.657053690704  0.
0.236496530414 -0.778618455105  0.
0.253395474906 -0.908838771116  0.
0.26947007901 -1.04730247163  0.
0.284720343436 -1.19359738822  0.
0.299146268781 -1.34731135189  0.
0.312747855348 -1.50803219341  0.
0.325525103193 -1.67534774348  0.
0.337478012079 -1.84884583276  0.
0.348606581184 -2.02811429199  0.
0.358910808451 -2.21274095228  0.
0.368390689695 -2.40231364598  0.
0.377046218816 -2.59642020902  0.
0.384877394891 -2.794648486  0.
0.391884254483 -2.99658633838  0.
0.39806697804 -3.20182165218  0.
0.403426180016 -3.40994230252  0.
0.407963577653 -3.62053601201  0.
0.41168327616 -3.83318938559  0.
0.414593008155 -4.0474863812  0.
0.416703786632 -4.26299567056  0.
0.417979718536 -4.4793071816  0.
0.418355417166 -4.69616399652  0.
-0.00339609375 -0.018225  0.
0.0356453904089 -0.030168137861  0.
0.073343157091 -0.0548918480959  0.
0.109814466685 -0.0920458602922  0.
0.145053537184 -0.141167279219  0.
0.179057388312 -0.201834120795  0.
0.211824947482 -0.273630081684  0.
0.243355982852 -0.356142258265  0.
0.273650470321 -0.448958435192  0.
0.30270842418 -0.55166654193  0.
0.330529857937 -0.663854481764  0.
0.357114778977 -0.785110122948  0.
0.382463190536 -0.915021311859  0.
0.406575093808 -1.05317588476  0.
0.42945048916 -1.19916167395  0.
0.451089376676 -1.35256651043  0.
0.471491756368 -1.51297822485  0.
0.490657628252 -1.67998464775  0.
0.508586992372 -1.85317360953  0.
0.525279848805 -2.03213294042  0.
0.540736197586 -2.21645047072  0.
0.554956038349 -2.40571403236  0.
0.567939369106 -2.5995114645  0.
0.579686182834 -2.79743062986  0.
0.590196459454 -2.99905945536  0.
0.599470150234 -3.20398601264  0.
0.607507158195 -3.41179864589  0.
0.61430735074 -3.62208594881  0.
0.619870805525 -3.83443628861  0.
0.624199424991 -4.04843264834  0.
0.627302621882 -4.2636471602  0.
0.629225779396 -4.47953912851  0.
0.629808053665 -4.69574455628  0.
0.0 -0.0324  0.
0.051856738693 -0.0435807180475  0.
0.10216584692 -0.0678835115515  0.
0.150824266902 -0.104597010614  0.
0.197822330925 -0.153285447836  0.
0.243165425733 -0.213519120227  0.
0.28685693166 -0.284882274181  0.
0.328898648642 -0.366961675338  0.
0.369291324501 -0.459345087606  0.
0.408035231515 -0.561620424335  0.
0.44513045031 -0.673375590191  0.
0.480576997803 -0.794198455101  0.
0.514374873931 -0.923676866756  0.
0.546524076139 -1.06139866203  0.
0.577024602619 -1.20695167349  0.
0.605876452462 -1.35992373221  0.
0.633079625288 -1.51990266886  0.
0.658634120992 -1.68647631398  0.
0.682539939723 -1.85923249795  0.
0.704797082205 -2.03775905102  0.
0.725405550676 -2.22164380362  0.
0.744365350893 -2.41047458816  0.
0.761676495227 -2.60383924532  0.
0.777339003959 -2.8013256419  0.
0.791352890437 -3.00252171308  0.
0.803718082868 -3.2070155473  0.
0.81443414591 -3.41439548728  0.
0.823499506766 -3.62425015876  0.
0.830909433583 -3.8361673291  0.
0.83665207897 -4.04973187767  0.
0.840697359376 -4.26449994589  0.
0.842998599706 -4.48000987582  0.
0.843575757452 -4.6949384808  0.
</DataArray>
<DataArray type="Float64" Name="Nodal_sigma_xx" NumberOfComponents="1" format="ascii" >
-90793.3503253 
-89399.7530836 
-86567.3006917 
-83683.0902658 
-80792.4914077 
-77903.2434286 
-75016.0313185 
-72130.0065731 
-69244.5290709 
-66359.2613896 
-63474.0613521 
-60588.8779836 
-57703.6963742 
-54818.5135257 
-51933.3295333 
-49048.1449154 
-46162.9600556 
-43277.7752616 
-40392.591025 
-37507.408467 
-34622.2299863 
-31737.059604 
-28851.9003885 
-25966.7399841 
-23081.4987204 
-20195.881149 
-17309.0088956 
-14418.7057537 
-11520.3243849 
-8607.17400832 
-5675.93996021 
-2795.25736512 
-1384.64886139 
-77897.733361 
-76658.6618314 
-74186.8266974 
-71718.1320526 
-69245.5196299 
-66772.097398 
-64298.7173192 
-61825.5114674 
-59352.4151352 
-56879.3707918 
-54406.3467543 
-51933.3294024 
-49460.3137615 
-46987.2983393 
-44514.2828176 
-42041.2671961 
-39568.251533 
-37095.2359014 
-34622.220422 
-32149.205324 
-29676.1909688 
-27203.1775716 
-24730.1637448 
-22257.1414118 
-19784.081522 
-17310.8993362 
-14837.3904143 
-12363.1461391 
-9887.77256449 
-7412.11687911 
-4944.75756075 
-2482.32081401 
-1249.58866118 
-52011.6213782 
-51145.6783067 
-49450.6785926 
-47799.8425338 
-46156.1459826 
-44511.2176387 
-42864.4474319 
-41216.5634279 
-39568.1649906 
-37919.5673889 
-36270.9051597 
-34622.2267492 
-32973.5464886 
-31324.8673276 
-29676.1892249 
-28027.5117077 
-26378.8344172 
-24730.1570621 
-23081.4791764 
-21432.7997036 
-19784.1164025 
-18135.4255719 
-16486.724607 
-14838.0259614 
-13189.4064393 
-11541.1483553 
-9894.08064395 
-8250.26218388 
-6613.93672879 
-4991.43813237 
-3382.69018711 
-1731.79499514 
-882.739768294 
-26015.7604045 
-25584.0085619 
-24731.0647197 
-23897.8240115 
-23075.3637271 
-22254.0108551 
-21431.503094 
-20608.0105467 
-19783.9977097 
-18959.7639647 
-18135.451211 
-17311.1153411 
-16486.774844 
-15662.4345093 
-14838.0949798 
-14013.7559895 
-13189.4172141 
-12365.0783362 
-11540.7388406 
-10716.3976513 
-9892.05274757 
-9067.70159059 
-8243.34562094 
-7419.00875163 
-6594.79524937 
-5771.04106976 
-4948.64397636 
-4129.59563799 
-3317.15527369 
-2512.62931022 
-1701.36967934 
-861.836921461 
-433.127918924 
1.72803993337e-10 
1.75987224793e-10 
1.81898940355e-10 
1.83263182407e-10 
1.78260961547e-10 
1.81898940355e-10 
1.88265403267e-10 
1.75532477442e-10 
1.75532477442e-10 
1.94177118829e-10 
1.99179339688e-10 
1.94631866179e-10 
1.78715708898e-10 
1.56887836056e-10 
1.40744305099e-10 
1.56433088705e-10 
1.76441972144e-10 
1.86219040188e-10 
1.81898940355e-10 
1.65982783074e-10 
1.94631866179e-10 
2.38742359215e-10 
2.27373675443e-10 
2.29306351684e-10 
1.85309545486e-10 
1.11526787805e-10 
2.03044692171e-10 
1.70075509232e-10 
4.46789272246e-11 
9.83959580481e-11 
7.85860265751e-11 
-8.92015350473e-11 
-1.81472614713e-10 
26015.7604045 
25584.0085619 
24731.0647197 
23897.8240115 
23075.3637271 
22254.0108551 
21431.503094 
20608.0105467 
19783.9977097 
18959.7639647 
18135.451211 
17311.1153411 
16486.774844 
15662.4345093 
14838.0949798 
14013.7559895 
13189.4172141 
12365.0783362 
11540.7388406 
10716.3976513 
9892.05274757 
9067.70159059 
8243.34562094 
7419.00875163 
6594.79524937 
5771.04106976 
4948.64397636 
4129.59563799 
3317.15527369 
2512.62931022 
1701.36967934 
861.836921461 
433.127918924 
52011.6213782 
51145.6783067 
49450.6785926 
47799.8425338 
46156.1459826 
44511.2176387 
42864.4474319 
41216.5634279 
39568.1649906 
37919.5673889 
36270.9051597 
34622.2267492 
32973.5464886 
31324.8673276 
29676.1892249 
28027.5117077 
26378.8344172 
24730.1570621 
23081.4791764 
21432.7997036 
19784.1164025 
18135.4255719 
16486.724607 
14838.0259614 
13189.4064393 
11541.1483553 
9894.08064395 
8250.26218388 
6613.93672879 
4991.43813237 
3382.69018711 
1731.79499514 
882.739768294 
77897.733361 
76658.6618314 
74186.8266974 
71718.1320526 
69245.5196299 
66772.097398 
64298.7173192 
61825.5114674 
59352.4151352 
56879.3707918 
54406.3467543 
51933.3294024 
49460.3137615 
46987.2983393 
44514.2828176 
42041.2671961 
39568.251533 
37095.2359014 
34622.220422 
32149.205324 
29676.1909688 
27203.1775716 
24730.1637448 
22257.1414118 
19784.081522 
17310.8993362 
14837.3904143 
12363.1461391 
9887.77256449 
7412.11687911 
4944.75756075 
2482.32081401 
1249.58866119 
90793.3503253 
89399.7530836 
86567.3006917 
83683.0902658 
80792.4914077 
77903.2434286 
75016.0313185 
72130.0065731 
69244.5290709 
66359.2613896 
63474.0613521 
60588.8779836 
57703.6963742 
54818.5135257 
51933.3295333 
49048.1449154 
46162.9600556 
43277.7752616 
40392.591025 
37507.408467 
34622.2299863 
31737.059604 
28851.9003885 
25966.7399841 
23081.4987204 
20195.881149 
17309.0088956 
14418.7057537 
11520.3243849 
8607.17400832 
5675.93996021 
2795.25736512 
1384.64886139 
</DataArray>
<DataArray type="Float64" Name="Nodal_sigma_yy" NumberOfComponents="1" format="ascii" >
349.575088865 
175.985989171 
3.33850207859 
1.1392779245 
-1.5039292814 
-0.79304055478 
-0.408646307096 
-0.162443016008 
-0.0565676947972 
-0.0155909762379 
-0.00269937820849 
0.000420229253905 
0.000698433639627 
0.00043495766613 
0.000206216409879 
7.7599557244e-05 
-6.98591384207e-06 
-0.000139630709782 
-0.00047404704037 
-0.00127961226144 
-0.00290114572817 
-0.00522822520952 
-0.00537623935315 
0.00931634339236 
0.0814474814485 
0.319860609086 
1.01101973181 
2.53916004477 
6.66281050673 
8.9902203094 
34.9920344652 
-344.474784924 
-750.722824035 
320.272794287 
184.756388878 
27.8114176366 
2.16452252364 
-2.1045290168 
-1.69700211512 
-0.898750580699 
-0.385626666269 
-0.140012392445 
-0.041881046827 
-0.00885288946552 
-4.08360431265e-05 
0.00129103972699 
0.00092506481019 
0.000465768271397 
0.000177337285777 
-3.03011468077e-05 
-0.000358938364116 
-0.00114905299768 
-0.00295354266268 
-0.00632392528075 
-0.0102755364726 
-0.00645597896653 
0.0382722201151 
0.225642858498 
0.817619022009 
2.38571981359 
5.9116014125 
12.5507932703 
19.6678837461 
5.75807025021 
-323.659233131 
-636.287350502 
239.361102519 
164.763470031 
52.6882832272 
6.93862406392 
-2.30608158566 
-2.68989665778 
-1.5515329734 
-0.699694724299 
-0.265032083454 
-0.0837510297304 
-0.0199259343229 
-0.00165839542399 
0.00179388499635 
0.00152414078877 
0.000813706882809 
0.000313157045753 
-7.62933079841e-05 
-0.000697175378718 
-0.00213343581765 
-0.0052624558765 
-0.0106784817619 
-0.0154981421544 
-0.00207170374711 
0.0942615383196 
0.462924017439 
1.57194841246 
4.37716277838 
10.3003242762 
19.4470203763 
23.5909856994 
-34.3357289056 
-249.870503621 
-408.541597473 
125.765909471 
91.9197339592 
37.0583327383 
8.07699890211 
-1.09824787516 
-1.97852950931 
-1.23503399848 
-0.577919877334 
-0.225530910007 
-0.0738250617108 
-0.0187662188933 
-0.00231455959775 
0.00115525592571 
0.00116735747454 
0.00065362088398 
0.000253617572525 
-7.57410469987e-05 
-0.000603406941252 
-0.00179171260879 
-0.00429061018215 
-0.008348904926 
-0.0109302663268 
0.00403533310271 
0.0926783008525 
0.414403661045 
1.35096680349 
3.64549063689 
8.21050329476 
14.2546455291 
10.3683796722 
-32.669103061 
-132.026750957 
-195.318510859 
4.13820089307e-11 
3.41060513165e-11 
2.245315045e-11 
1.18518528325e-11 
-5.57065504836e-12 
-1.47934997585e-11 
-5.9827698351e-12 
-2.35900188272e-11 
-3.78008735424e-11 
2.72848410532e-12 
4.59863258584e-11 
3.07238678943e-11 
-1.5518253349e-11 
-4.99937868881e-11 
-9.67190771917e-11 
-6.42899067316e-11 
-2.70006239589e-12 
1.56319401867e-13 
2.66240363089e-11 
4.97308860758e-11 
5.82929260418e-11 
1.82538428817e-10 
2.90299340122e-10 
2.9092461773e-10 
1.66608060681e-10 
8.9016793936e-11 
3.94017263261e-10 
4.39584368905e-10 
2.35440111851e-10 
3.62577523561e-10 
1.34585675937e-10 
-4.70855354706e-10 
-7.20575599189e-10 
-125.76590947 
-91.9197339592 
-37.0583327383 
-8.07699890211 
1.09824787515 
1.97852950932 
1.23503399847 
0.57791987728 
0.225530909973 
0.0738250617188 
0.0187662188932 
0.00231455958368 
-0.00115525600137 
-0.00116735763777 
-0.000653621048343 
-0.000253617666829 
7.5740984613e-05 
0.000603406779405 
0.0017917122275 
0.00429060974496 
0.0083489048083 
0.0109302665066 
-0.00403533282997 
-0.092678300396 
-0.414403660714 
-1.35096680361 
-3.64549063689 
-8.21050329458 
-14.2546455288 
-10.3683796715 
32.6691030614 
132.026750956 
195.318510857 
-239.361102519 
-164.763470031 
-52.6882832272 
-6.93862406394 
2.30608158564 
2.68989665778 
1.55153297341 
0.699694724305 
0.265032083457 
0.083751029749 
0.0199259344173 
0.00165839552199 
-0.00179388505489 
-0.00152414096726 
-0.000813706950908 
-0.000313157043934 
7.62933078704e-05 
0.00069717543272 
0.00213343570135 
0.0052624556954 
0.010678481709 
0.0154981421342 
0.00207170390416 
-0.0942615379163 
-0.462924017051 
-1.57194841276 
-4.37716277913 
-10.3003242764 
-19.4470203757 
-23.5909856983 
34.3357289062 
249.870503621 
408.541597472 
-320.272794287 
-184.756388878 
-27.8114176366 
-2.16452252364 
2.10452901681 
1.69700211511 
0.898750580659 
0.385626666237 
0.140012392438 
0.041881046835 
0.00885288953191 
4.08361236168e-05 
-0.00129103980044 
-0.000925065020283 
-0.000465768400545 
-0.000177337339665 
3.03011493088e-05 
0.000358938726549 
0.00114905353621 
0.0029535430233 
0.00632392532259 
0.010275536487 
0.00645597930873 
-0.0382722199065 
-0.225642858429 
-0.817619022112 
-2.38571981377 
-5.91160141233 
-12.5507932698 
-19.6678837455 
-5.75807025008 
323.659233131 
636.287350502 
-349.575088864 
-175.985989171 
-3.33850207859 
-1.13927792449 
1.50392928146 
0.793040554813 
0.408646306992 
0.162443015873 
0.0565676947872 
0.015590976227 
0.00269937806024 
-0.000420229378506 
-0.000698433789694 
-0.000434957955804 
-0.000206216667266 
-7.75997286837e-05 
6.98579970049e-06 
0.000139631002639 
0.000474047534226 
0.00127961237104 
0.00290114556583 
0.00522822527319 
0.0053762396883 
-0.00931634345056 
-0.0814474817594 
-0.319860609126 
-1.01101973145 
-2.53916004443 
-6.66281050708 
-8.99022030971 
-34.9920344657 
344.474784924 
750.722824036 
</DataArray>
<DataArray type="Float64" Name="Nodal_sigma_xy" NumberOfComponents="1" format="ascii" >
-1352.46687478 
-1444.01528856 
-1543.74746894 
-1551.20834693 
-1549.0278841 
-1546.68770173 
-1545.3886562 
-1544.80711423 
-1544.58676467 
-1544.51691029 
-1544.50016884 
-1544.4987002 
-1544.50015248 
-1544.50140394 
-1544.50207956 
-1544.50237224 
-1544.50244808 
-1544.50231024 
-1544.50170488 
-1544.49992686 
-1544.49556911 
-1544.48676421 
-1544.4741011 
-1544.47293746 
-1544.55239696 
-1544.93860789 
-1546.24683414 
-1549.91475418 
-1558.91390872 
-1577.84901307 
-1609.52481377 
-1505.35559314 
-1382.11871246 
-2672.54055895 
-2714.73073195 
-2770.21350345 
-2784.68790345 
-2784.97876966 
-2783.27455381 
-2782.02124478 
-2781.39016168 
-2781.12915758 
-2781.03805161 
-2781.01230752 
-2781.00761719 
-2781.00812554 
-2781.0091869 
-2781.00986631 
-2781.01018285 
-2781.01025415 
-2781.0100578 
-2781.00930575 
-2781.00727564 
-2781.0027256 
-2780.99470666 
-2780.98708347 
-2781.0046505 
-2781.13955306 
-2781.6642202 
-2783.25748944 
-2787.32969147 
-2795.97811518 
-2809.88203238 
-2812.17898097 
-2745.19015912 
-2684.04884254 
-4871.59901911 
-4849.17288479 
-4832.09866954 
-4839.79405506 
-4842.43611393 
-4842.57894315 
-4842.27350137 
-4842.04257964 
-4841.92622545 
-4841.87833875 
-4841.86173155 
-4841.85708536 
-4841.8562637 
-4841.85637318 
-4841.85657185 
-4841.85668705 
-4841.85670282 
-4841.85658658 
-4841.85622065 
-4841.8553803 
-4841.85387879 
-4841.85238544 
-4841.85536526 
-4841.87960252 
-4841.97509922 
-4842.2671177 
-4843.01340389 
-4844.56275335 
-4846.62425433 
-4844.73180394 
-4824.55924108 
-4835.84865989 
-4864.37696741 
-6186.83444105 
-6144.64426805 
-6089.16149654 
-6074.68709655 
-6074.39623034 
-6076.10044619 
-6077.35375522 
-6077.98483831 
-6078.24584242 
-6078.33694839 
-6078.36269248 
-6078.3673828 
-6078.36687446 
-6078.3658131 
-6078.36513368 
-6078.36481714 
-6078.36474585 
-6078.3649422 
-6078.36569425 
-6078.36772436 
-6078.3722744 
-6078.38029334 
-6078.38791652 
-6078.3703495 
-6078.23544694 
-6077.7107798 
-6076.11751056 
-6072.04530853 
-6063.39688482 
-6049.49296761 
-6047.19601903 
-6114.18484088 
-6175.32615746 
-6623.08508701 
-6576.38894185 
-6510.80519198 
-6487.95354295 
-6484.84988804 
-6486.90441196 
-6488.81434106 
-6489.8577265 
-6490.31078442 
-6490.47641221 
-6490.52636806 
-6490.53712908 
-6490.53732011 
-6490.5358497 
-6490.53477674 
-6490.53425365 
-6490.53414627 
-6490.5345166 
-6490.53585381 
-6490.53931253 
-6490.54667331 
-6490.55846492 
-6490.56516839 
-6490.51785749 
-6490.2474046 
-6489.2771567 
-6486.47635808 
-6479.70973912 
-6466.58758261 
-6451.43737906 
-6460.10670407 
-6541.69708709 
-6607.87735271 
-6186.83444105 
-6144.64426805 
-6089.16149654 
-6074.68709655 
-6074.39623034 
-6076.10044619 
-6077.35375522 
-6077.98483831 
-6078.24584242 
-6078.33694839 
-6078.36269248 
-6078.3673828 
-6078.36687446 
-6078.3658131 
-6078.36513368 
-6078.36481714 
-6078.36474585 
-6078.3649422 
-6078.36569425 
-6078.36772436 
-6078.3722744 
-6078.38029334 
-6078.38791652 
-6078.3703495 
-6078.23544694 
-6077.7107798 
-6076.11751056 
-6072.04530853 
-6063.39688482 
-6049.49296761 
-6047.19601903 
-6114.18484088 
-6175.32615746 
-4871.59901911 
-4849.17288479 
-4832.09866954 
-4839.79405506 
-4842.43611393 
-4842.57894315 
-4842.27350137 
-4842.04257964 
-4841.92622545 
-4841.87833875 
-4841.86173155 
-4841.85708536 
-4841.8562637 
-4841.85637318 
-4841.85657185 
-4841.85668705 
-4841.85670282 
-4841.85658658 
-4841.85622065 
-4841.8553803 
-4841.85387879 
-4841.85238544 
-4841.85536526 
-4841.87960252 
-4841.97509922 
-4842.2671177 
-4843.01340389 
-4844.56275335 
-4846.62425433 
-4844.73180394 
-4824.55924108 
-4835.84865989 
-4864.37696741 
-2672.54055895 
-2714.73073195 
-2770.21350345 
-2784.68790345 
-2784.97876966 
-2783.27455381 
-2782.02124478 
-2781.39016168 
-2781.12915758 
-2781.03805161 
-2781.01230752 
-2781.00761719 
-2781.00812554 
-2781.0091869 
-2781.00986631 
-2781.01018285 
-2781.01025415 
-2781.0100578 
-2781.00930575 
-2781.00727564 
-2781.0027256 
-2780.99470666 
-2780.98708347 
-2781.0046505 
-2781.13955306 
-2781.6642202 
-2783.25748944 
-2787.32969147 
-2795.97811518 
-2809.88203238 
-2812.17898097 
-2745.19015912 
-2684.04884254 
-1352.46687478 
-1444.01528856 
-1543.74746894 
-1551.20834693 
-1549.0278841 
-1546.68770173 
-1545.3886562 
-1544.80711423 
-1544.58676467 
-1544.51691029 
-1544.50016884 
-1544.4987002 
-1544.50015248 
-1544.50140394 
-1544.50207956 
-1544.50237224 
-1544.50244808 
-1544.50231024 
-1544.50170488 
-1544.49992686 
-1544.49556911 
-1544.48676421 
-1544.4741011 
-1544.47293746 
-1544.55239696 
-1544.93860789 
-1546.24683414 
-1549.91475418 
-1558.91390872 
-1577.84901307 
-1609.52481377 
-1505.35559314 
-1382.11871246 
</DataArray>
</PointData>
<CellData>
</CellData>
<Points>
<DataArray type="Float64" Name="Points" NumberOfComponents="3" format="ascii">
0.0 -2.0 0.0
0.5 -2.0 0.0
1.0 -2.0 0.0
1.5 -2.0 0.0
2.0 -2.0 0.0
2.5 -2.0 0.0
3.0 -2.0 0.0
3.5 -2.0 0.0
4.0 -2.0 0.0
4.5 -2.0 0.0
5.0 -2.0 0.0
5.5 -2.0 0.0
6.0 -2.0 0.0
6.5 -2.0 0.0
7.0 -2.0 0.0
7.5 -2.0 0.0
8.0 -2.0 0.0
8.5 -2.0 0.0
9.0 -2.0 0.0
9.5 -2.0 0.0
10.0 -2.0 0.0
10.5 -2.0 0.0
11.0 -2.0 0.0
11.5 -2.0 0.0
12.0 -2.0 0.0
12.5 -2.0 0.0
13.0 -2.0 0.0
13.5 -2.0 0.0
14.0 -2.0 0.0
14.5 -2.0 0.0
15.0 -2.0 0.0
15.5 -2.0 0.0
16.0 -2.0 0.0
0.0 -1.5 0.0
0.5 -1.5 0.0
1.0 -1.5 0.0
1.5 -1.5 0.0
2.0 -1.5 0.0
2.5 -1.5 0.0
3.0 -1.5 0.0
3.5 -1.5 0.0
4.0 -1.5 0.0
4.5 -1.5 0.0
5.0 -1.5 0.0
5.5 -1.5 0.0
6.0 -1.5 0.0
6.5 -1.5 0.0
7.0 -1.5 0.0
7.5 -1.5 0.0
8.0 -1.5 0.0
8.5 -1.5 0.0
9.0 -1.5 0.0
9.5 -1.5 0.0
10.0 -1.5 0.0
10.5 -1.5 0.0
11.0 -1.5 0.0
11.5 -1.5 0.0
12.0 -1.5 0.0
12.5 -1.5 0.0
13.0 -1.5 0.0
13.5 -1.5 0.0
14.0 -1.5 0.0
14.5 -1.5 0.0
15.0 -1.5 0.0
15.5 -1.5 0.0
16.0 -1.5 0.0
0.0 -1.0 0.0
0.5 -1.0 0.0
1.0 -1.0 0.0
1.5 -1.0 0.0
2.0 -1.0 0.0
2.5 -1.0 0.0
3.0 -1.0 0.0
3.5 -1.0 0.0
4.0 -1.0 0.0
4.5 -1.0 0.0
5.0 -1.0 0.0
5.5 -1.0 0.0
6.0 -1.0 0.0
6.5 -1.0 0.0
7.0 -1.0 0.0
7.5 -1.0 0.0
8.0 -1.0 0.0
8.5 -1.0 0.0
9.0 -1.0 0.0
9.5 -1.0 0.0
10.0 -1.0 0.0
10.5 -1.0 0.0
11.0 -1.0 0.0
11.5 -1.0 0.0
12.0 -1.0 0.0
12.5 -1.0 0.0
13.0 -1.0 0.0
13.5 -1.0 0.0
14.0 -1.0 0.0
14.5 -1.0 0.0
15.0 -1.0 0.0
15.5 -1.0 0.0
16.0 -1.0 0.0
0.0 -0.5 0.0
0.5 -0.5 0.0
1.0 -0.5 0.0
1.5 -0.5 0.0
2.0 -0.5 0.0
2.5 -0.5 0.0
3.0 -0.5 0.0
3.5 -0.5 0.0
4.0 -0.5 0.0
4.5 -0.5 0.0
5.0 -0.5 0.0
5.5 -0.5 0.0
6.0 -0.5 0.0
6.5 -0.5 0.0
7.0 -0.5 0.0
7.5 -0.5 0.0
8.0 -0.5 0.0
8.5 -0.5 0.0
9.0 -0.5 0.0
9.5 -0.5 0.0
10.0 -0.5 0.0
10.5 -0.5 0.0
11.0 -0.5 0.0
11.5 -0.5 0.0
12.0 -0.5 0.0
12.5 -0.5 0.0
13.0 -0.5 0.0
13.5 -0.5 0.0
14.0 -0.5 0.0
14.5 -0.5 0.0
15.0 -0.5 0.0
15.5 -0.5 0.0
16.0 -0.5 0.0
0.0 0.0 0.0
0.5 0.0 0.0
1.0 0.0 0.0
1.5 0.0 0.0
2.0 0.0 0.0
2.5 0.0 0.0
3.0 0.0 0.0
3.5 0.0 0.0
4.0 0.0 0.0
4.5 0.0 0.0
5.0 0.0 0.0
5.5 0.0 0.0
6.0 0.0 0.0
6.5 0.0 0.0
7.0 0.0 0.0
7.5 0.0 0.0
8.0 0.0 0.0
8.5 0.0 0.0
9.0 0.0 0.0
9.5 0.0 0.0
10.0 0.0 0.0
10.5 0.0 0.0
11.0 0.0 0.0
11.5 0.0 0.0
12.0 0.0 0.0
12.5 0.0 0.0
13.0 0.0 0.0
13.5 0.0 0.0
14.0 0.0 0.0
14.5 0.0 0.0
15.0 0.0 0.0
15.5 0.0 0.0
16.0 0.0 0.0
0.0 0.5 0.0
0.5 0.5 0.0
1.0 0.5 0.0
1.5 0.5 0.0
2.0 0.5 0.0
2.5 0.5 0.0
3.0 0.5 0.0
3.5 0.5 0.0
4.0 0.5 0.0
4.5 0.5 0.0
5.0 0.5 0.0
5.5 0.5 0.0
6.0 0.5 0.0
6.5 0.5 0.0
7.0 0.5 0.0
7.5 0.5 0.0
8.0 0.5 0.0
8.5 0.5 0.0
9.0 0.5 0.0
9.5 0.5 0.0
10.0 0.5 0.0
10.5 0.5 0.0
11.0 0.5 0.0
11.5 0.5 0.0
12.0 0.5 0.0
12.5 0.5 0.0
13.0 0.5 0.0
13.5 0.5 0.0
14.0 0.5 0.0
14.5 0.5 0.0
15.0 0.5 0.0
15.5 0.5 0.0
16.0 0.5 0.0
0.0 1.0 0.0
0.5 1.0 0.0
1.0 1.0 0.0
1.5 1.0 0.0
2.0 1.0 0.0
2.5 1.0 0.0
3.0 1.0 0.0
3.5 1.0 0.0
4.0 1.0 0.0
4.5 1.0 0.0
5.0 1.0 0.0
5.5 1.0 0.0
6.0 1.0 0.0
6.5 1.0 0.0
7.0 1.0 0.0
7.5 1.0 0.0
8.0 1.0 0.0
8.5 1.0 0.0
9.0 1.0 0.0
9.5 1.0 0.0
10.0 1.0 0.0
10.5 1.0 0.0
11.0 1.0 0.0
11.5 1.0 0.0
12.0 1.0 0.0
12.5 1.0 0.0
13.0 1.0 0.0
13.5 1.0 0.0
14.0 1.0 0.0
14.5 1.0 0.0
15.0 1.0 0.0
15.5 1.0 0.0
16.0 1.0 0.0
0.0 1.5 0.0
0.5 1.5 0.0
1.0 1.5 0.0
1.5 1.5 0.0
2.0 1.5 0.0
2.5 1.5 0.0
3.0 1.5 0.0
3.5 1.5 0.0
4.0 1.5 0.0
4.5 1.5 0.0
5.0 1.5 0.0
5.5 1.5 0.0
6.0 1.5 0.0
6.5 1.5 0.0
7.0 1.5 0.0
7.5 1.5 0.0
8.0 1.5 0.0
8.5 1.5 0.0
9.0 1.5 0.0
9.5 1.5 0.0
10.0 1.5 0.0
10.5 1.5 0.0
11.0 1.5 0.0
11.5 1.5 0.0
12.0 1.5 0.0
12.5 1.5 0.0
13.0 1.5 0.0
13.5 1.5 0.0
14.0 1.5 0.0
14.5 1.5 0.0
15.0 1.5 0.0
15.5 1.5 0.0
16.0 1.5 0.0
0.0 2.0 0.0
0.5 2.0 0.0
1.0 2.0 0.0
1.5 2.0 0.0
2.0 2.0 0.0
2.5 2.0 0.0
3.0 2.0 0.0
3.5 2.0 0.0
4.0 2.0 0.0
4.5 2.0 0.0
5.0 2.0 0.0
5.5 2.0 0.0
6.0 2.0 0.0
6.5 2.0 0.0
7.0 2.0 0.0
7.5 2.0 0.0
8.0 2.0 0.0
8.5 2.0 0.0
9.0 2.0 0.0
9.5 2.0 0.0
10.0 2.0 0.0
10.5 2.0 0.0
11.0 2.0 0.0
11.5 2.0 0.0
12.0 2.0 0.0
12.5 2.0 0.0
13.0 2.0 0.0
13.5 2.0 0.0
14.0 2.0 0.0
14.5 2.0 0.0
15.0 2.0 0.0
15.5 2.0 0.0
16.0 2.0 0.0
</DataArray>
</Points>
<Cells>
<DataArray type="Int64" Name="connectivity" format="ascii">
0 1 34 33 
1 2 35 34 
2 3 36 35 
3 4 37 36 
4 5 38 37 
5 6 39 38 
6 7 40 39 
7 8 41 40 
8 9 42 41 
9 10 43 42 
10 11 44 43 
11 12 45 44 
12 13 46 45 
13 14 47 46 
14 15 48 47 
15 16 49 48 
16 17 50 49 
17 18 51 50 
18 19 52 51 
19 20 53 52 
20 21 54 53 
21 22 55 54 
22 23 56 55 
23 24 57 56 
24 25 58 57 
25 26 59 58 
26 27 60 59 
27 28 61 60 
28 29 62 61 
29 30 63 62 
30 31 64 63 
31 32 65 64 
33 34 67 66 
34 35 68 67 
35 36 69 68 
36 37 70 69 
37 38 71 70 
38 39 72 71 
39 40 73 72 
40 41 74 73 
41 42 75 74 
42 43 76 75 