<?xml version="1.0"?>
<VTKFile type="UnstructuredGrid" version="0.1" byte_order="LittleEndian" compressor="vtkZLibDataCompressor">
<UnstructuredGrid>
<Piece NumberOfPoints="297" NumberOfCells="256">
<PointData>
<DataArray type="Float64" Name="displacement" NumberOfComponents="3" format="ascii" >
0.0 -0.0252  0.
-0.0403330189835 -0.0338961140369  0.
-0.079462325382 -0.0527982867623  0.
-0.117307763146 -0.0813532304773  0.
-0.153861812941 -0.119222014983  0.
-0.189128664459 -0.166070426843  0.
-0.223110946847 -0.221575102141  0.
-0.255810060055 -0.285414636374  0.
-0.287226585723 -0.357268401472  0.
-0.317360735623 -0.436815885594  0.
-0.346212572463 -0.523736570148  0.
-0.373782109402 -0.617709909523  0.
-0.40006934639 -0.71841534081  0.
-0.425074281441 -0.825532292691  0.
-0.448796913148 -0.938740190489  0.
-0.471237240803 -1.05771845838  0.
-0.492395264113 -1.18214652023  0.
-0.512270982994 -1.31170379976  0.
-0.530864397562 -1.44606972063  0.
-0.548175508381 -1.58492370635  0.
-0.564204317192 -1.72794518059  0.
-0.578950828472 -1.87481356857  0.
-0.592415051843 -2.02520830191  0.
-0.604597003079 -2.17880883259  0.
-0.615496692562 -2.33529466573  0.
-0.625114064453 -2.49434542568  0.
-0.633448780152 -2.65564093455  0.
-0.640499616373 -2.81886123459  0.
-0.646262892787 -2.98368570041  0.
-0.650729394754 -3.14979146041  0.
-0.653875723959 -3.31683329125  0.
-0.655665577549 -3.48445212564  0.
-0.656114478018 -3.6516188184  0.
0.00264140625 -0.014175  0.
-0.0277241925403 -0.0234641072252  0.
-0.0570446777374 -0.0426936596302  0.
-0.0854112518658 -0.0715912246717  0.
-0.11281941781 -0.109796772726  0.
-0.139266857576 -0.156982093952  0.
-0.16475273693 -0.212823396865  0.
-0.189276875551 -0.276999534206  0.
-0.212839254694 -0.349189894038  0.
-0.235439885473 -0.429073977056  0.
-0.257078778396 -0.516331263594  0.
-0.277755939204 -0.610641206737  0.
-0.297471370417 -0.711683242557  0.
-0.316225072962 -0.819136799255  0.
-0.334017047124 -0.932681301958  0.
-0.35084729297 -1.05199617478  0.
-0.366715810509 -1.17676084155  0.
-0.381622599752 -1.30665472603  0.
-0.395567660734 -1.44135725186  0.
-0.408550993515 -1.58054784255  0.
-0.420572598122 -1.72390592167  0.
-0.431632474271 -1.87111091406  0.
-0.441730620415 -2.02184225016  0.
-0.450867031093 -2.17577937878  0.
-0.459041690687 -2.33260179862  0.
-0.466254561293 -2.49198912094  0.
-0.472505567485 -2.65362116903  0.
-0.477794606131 -2.81717796019  0.
-0.482121737631 -2.98233933559  0.
-0.48548844166 -3.14878094871  0.
-0.487902039241 -3.31617001349  0.
-0.489397828419 -3.48408598884  0.
-0.489850708406 -3.65224576599  0.
0.00301875 -0.0063  0.
-0.0172407459682 -0.015945636344  0.
-0.036812810526 -0.0354763601178  0.
-0.0557213013141 -0.0646199987978  0.
-0.0739889405393 -0.103066747668  0.
-0.0916177298695 -0.150491588923  0.
-0.108606998652 -0.206572700621  0.
-0.12495591337 -0.270988937283  0.
-0.140664000006 -0.343419590199  0.
-0.155731045479 -0.423544055365  0.
-0.170156969238 -0.511041759436  0.
-0.183941745877 -0.605592131748  0.
-0.197085369371 -0.706874599757  0.
-0.20958783923 -0.814568589045  0.
-0.221449156006 -0.928353524173  0.
-0.232669320163 -1.04790882925  0.
-0.243248331937 -1.17291392821  0.
-0.253186191372 -1.30304824493  0.
-0.262482898284 -1.43799120326  0.
-0.271138452032 -1.57742222711  0.
-0.279152851018 -1.72102074066  0.
-0.286526091985 -1.8684661691  0.
-0.29325817019 -2.01943794035  0.
-0.299349084915 -2.17361548911  0.
-0.304798864598 -2.33067826319  0.
-0.309607649587 -2.49030572948  0.
-0.31377591779 -2.65217734641  0.
-0.317305004841 -2.81597245378  0.
-0.32019810368 -2.98136952212  0.
-0.322461228565 -3.14804496316  0.
-0.324102945158 -3.31566329933  0.
-0.325095336639 -3.48390558569  0.
-0.325387546684 -3.65257199729  0.
0.00188671875 -0.001575  0.
-0.00824735895941 -0.011419677756  0.
-0.0180377435146 -0.0311339546868  0.
-0.0274949202946 -0.0604371782379  0.
-0.0366278406809 -0.0990297973417  0.
-0.0454412037434 -0.146598196047  0.
-0.0539352385298 -0.202822733498  0.
-0.0621094293455 -0.267382768234  0.
-0.0699633734518 -0.339957473644  0.
-0.077496865592 -0.420226121036  0.
-0.0847098205516 -0.507868060359  0.
-0.0916022085189 -0.602562686405  0.
-0.0981740210466 -0.703989413317  0.
-0.104425256583 -0.81182766243  0.
-0.110355915288 -0.925756857267  0.
-0.115965997502 -1.04545642184  0.
-0.121255503425 -1.17060578021  0.
-0.126224433084 -1.30088435643  0.
-0.130872786271 -1.43597157465  0.
-0.135200562336 -1.57554685931  0.
-0.139207759804 -1.71928963534  0.
-0.142894376071 -1.86687932787  0.
-0.146260408702 -2.01799535988  0.
-0.149305863566 -2.17231714234  0.
-0.152030785028 -2.32952404429  0.
-0.154435345007 -2.48929531316  0.
-0.156520063881 -2.65130990996  0.
-0.158286259238 -2.815246193  0.
-0.159736617941 -2.98078183887  0.
-0.160874818859 -3.14759419988  0.
-0.161697570261 -3.3153689381  0.
-0.162189094297 -3.48382453321  0.
-0.162334292226 -3.65273078555  0.
0.0 0.0  0.
8.29370531686e-17 -0.00990931229606  0.
1.71890003955e-16 -0.029684627717  0.
2.65032417261e-16 -0.0590421679849  0.
3.60168939259e-16 -0.0976843775093  0.
4.57843995965e-16 -0.145300570679  0.
5.5875152666e-16 -0.201572852561  0.
6.56498882553e-16 -0.266180757752  0.
7.51910400514e-16 -0.338803452115  0.
8.55498473859e-16 -0.419120148187  0.
9.53892209071e-16 -0.506810161855  0.
1.05592766775e-15 -0.601552871343  0.
1.13342435577e-15 -0.703027684366  0.
1.2328581042e-15 -0.810914020119  0.
1.32407308924e-15 -0.924891301577  0.
1.40768323648e-15 -1.04463895269  0.
1.50886893227e-15 -1.16983639755  0.
1.63923049569e-15 -1.30016306031  0.
1.73286211836e-15 -1.43529836525  0.
1.78603026627e-15 -1.57492173706  0.
1.84621977059e-15 -1.71871260097  0.
1.91793080434e-15 -1.86635038195  0.
1.99725628695e-15 -2.0175145002  0.
2.05539678805e-15 -2.17188435476  0.
2.13781473525e-15 -2.32913927555  0.
2.16187205954e-15 -2.48895840763  0.
2.20895865302e-15 -2.65102046974  0.
2.28696778622e-15 -2.81500345306  0.
2.27049033436e-15 -2.98058456718  0.
2.2329400044e-15 -3.14744351438  0.
2.29543497692e-15 -3.31527377394  0.
2.36010835804e-15 -3.48379977741  0.
2.39277709418e-15 -3.65277950801  0.
-0.00188671875 -0.001575  0.
0.00824735895941 -0.011419677756  0.
0.0180377435146 -0.0311339546868  0.
0.0274949202946 -0.0604371782379  0.
0.0366278406809 -0.0990297973417  0.
0.0454412037434 -0.146598196047  0.
0.0539352385298 -0.202822733498  0.
0.0621094293455 -0.267382768234  0.
0.0699633734518 -0.339957473644  0.
0.077496865592 -0.420226121036  0.
0.0847098205516 -0.507868060359  0.
0.0916022085189 -0.602562686405  0.
0.0981740210466 -0.703989413317  0.
0.104425256583 -0.81182766243  0.
0.110355915288 -0.925756857267  0.
0.115965997502 -1.04545642184  0.
0.121255503425 -1.17060578021  0.
0.126224433084 -1.30088435643  0.
0.130872786271 -1.43597157465  0.
0.135200562336 -1.57554685931  0.
0.139207759804 -1.71928963534  0.
0.142894376071 -1.86687932787  0.
0.146260408702 -2.01799535988  0.
0.149305863566 -2.17231714234  0.
0.152030785028 -2.32952404429  0.
0.154435345007 -2.48929531316  0.
0.156520063881 -2.65130990996  0.
0.158286259238 -2.815246193  0.
0.159736617941 -2.98078183887  0.
0.160874818859 -3.14759419988  0.
0.161697570261 -3.3153689381  0.
0.162189094297 -3.48382453321  0.
0.162334292226 -3.65273078555  0.
-0.00301875 -0.0063  0.
0.0172407459682 -0.015945636344  0.
0.036812810526 -0.0354763601178  0.
0.0557213013141 -0.0646199987978  0.
0.0739889405393 -0.103066747668  0.
0.0916177298695 -0.150491588923  0.
0.108606998652 -0.206572700621  0.
0.12495591337 -0.270988937283  0.
0.140664000006 -0.343419590199  0.
0.155731045479 -0.423544055365  0.
0.170156969238 -0.511041759436  0.
0.183941745877 -0.605592131748  0.
0.197085369371 -0.706874599757  0.
0.20958783923 -0.814568589045  0.
0.221449156006 -0.928353524173  0.
0.232669320163 -1.04790882925  0.
0.243248331937 -1.17291392821  0.
0.253186191372 -1.30304824493  0.
0.262482898284 -1.43799120326  0.
0.271138452032 -1.57742222711  0.
0.279152851018 -1.72102074066  0.
0.286526091985 -1.8684661691  0.
0.29325817019 -2.01943794035  0.
0.299349084915 -2.17361548911  0.
0.304798864598 -2.33067826319  0.
0.309607649587 -2.49030572948  0.
0.31377591779 -2.65217734641  0.
0.317305004841 -2.81597245378  0.
0.32019810368 -2.98136952212  0.
0.322461228565 -3.14804496316  0.
0.324102945158 -3.31566329933  0.
0.325095336639 -3.48390558569  0.
0.325387546684 -3.65257199729  0.
-0.00264140625 -0.014175  0.
0.0277241925403 -0.0234641072252  0.
0.0570446777374 -0.0426936596302  0.
0.0854112518658 -0.0715912246717  0.
0.11281941781 -0.109796772726  0.
0.139266857576 -0.156982093952  0.
0.16475273693 -0.212823396865  0.
0.189276875551 -0.276999534206  0.
0.212839254694 -0.349189894038  0.
0.235439885473 -0.429073977056  0.
0.257078778396 -0.516331263594  0.
0.277755939204 -0.610641206737  0.
0.297471370417 -0.711683242557  0.
0.316225072962 -0.819136799255  0.
0.334017047124 -0.932681301958  0.
0.35084729297 -1.05199617478  0.
0.366715810509 -1.17676084155  0.
0.381622599752 -1.30665472603  0.
0.395567660734 -1.44135725186  0.
0.408550993515 -1.58054784255  0.
0.420572598122 -1.72390592167  0.
0.431632474271 -1.87111091406  0.
0.441730620415 -2.02184225016  0.
0.450867031093 -2.17577937878  0.
0.459041690687 -2.33260179862  0.
0.466254561293 -2.49198912094  0.
0.472505567485 -2.65362116903  0.
0.477794606131 -2.81717796019  0.
0.482121737631 -2.98233933559  0.
0.48548844166 -3.14878094871  0.
0.487902039241 -3.31617001349  0.
0.489397828419 -3.48408598884  0.
0.489850708406 -3.65224576599  0.
0.0 -0.0252  0.
0.0403330189835 -0.0338961140369  0.
0.079462325382 -0.0527982867623  0.
0.117307763146 -0.0813532304773  0.
0.153861812941 -0.119222014983  0.
0.189128664459 -0.166070426843  0.
0.223110946847 -0.221575102141  0.
0.255810060055 -0.285414636374  0.
0.287226585723 -0.357268401472  0.
0.317360735623 -0.436815885594  0.
0.346212572463 -0.523736570148  0.
0.373782109402 -0.617709909523  0.
0.40006934639 -0.71841534081  0.
0.425074281441 -0.825532292691  0.
0.448796913148 -0.938740190489  0.
0.471237240803 -1.05771845838  0.
0.492395264113 -1.18214652023  0.
0.512270982994 -1.31170379976  0.
0.530864397562 -1.44606972063  0.
0.548175508381 -1.58492370635  0.
0.564204317192 -1.72794518059  0.
0.578950828472 -1.87481356857  0.
0.592415051843 -2.02520830191  0.
0.604597003079 -2.17880883259  0.
0.615496692562 -2.33529466573  0.
0.625114064453 -2.49434542568  0.
0.633448780152 -2.65564093455  0.
0.640499616373 -2.81886123459  0.
0.646262892787 -2.98368570041  0.
0.650729394754 -3.14979146041  0.
0.653875723959 -3.31683329125  0.
0.655665577549 -3.48445212564  0.
0.656114478018 -3.6516188184  0.
</DataArray>
<DataArray type="Float64" Name="Nodal_sigma_xx" NumberOfComponents="1" format="ascii" >
-70617.050253 
-69533.1412872 
-67330.1227602 
-65086.8479845 
-62838.6044282 
-60591.4115556 
-58345.8021366 
-56101.1162235 
-53856.855944 
-51612.7588586 
-49368.7143849 
-47124.6828761 
-44880.6527354 
-42636.6216311 
-40392.589637 
-38148.5571564 
-35904.5244877 
-33660.4918702 
-31416.4596861 
-29172.4288077 
-26928.4011004 
-24684.379692 
-22440.3669688 
-20196.353321 
-17952.2767826 
-15707.9075603 
-13462.5624744 
-11214.5489196 
-8960.25229935 
-6694.46867314 
-4414.61996905 
-2174.08906176 
-1076.94911442 
-60587.1259474 
-59623.4036467 
-57700.8652091 
-55780.7693742 
-53857.6263788 
-51933.8535318 
-50010.1134705 
-48086.5089191 
-46162.9895496 
-44239.5106159 
-42316.0474756 
-40392.5895352 
-38469.1329256 
-36545.6764861 
-34622.2199692 
-32698.7633747 
-30775.3067479 
-28851.8501456 
-26928.3936616 
-25004.9374742 
-23081.4818646 
-21158.0270001 
-19234.5718015 
-17311.1099869 
-15387.6189616 
-13464.0328171 
-11540.1925444 
-9615.78033042 
-7690.48977238 
-5764.97979486 
-3845.92254725 
-1930.69396646 
-971.902292033 
-40453.4832941 
-39779.9720164 
-38461.6389054 
-37177.6553041 
-35899.2246531 
-34619.8359412 
-33339.0146692 
-32057.3271106 
-30775.2394371 
-29492.996858 
-28210.7040131 
-26928.3985827 
-25646.0917134 
-24363.7856992 
-23081.4805083 
-21799.1757727 
-20516.8712134 
-19234.5666038 
-17952.2615816 
-16669.955325 
-15387.6460908 
-14105.3310004 
-12823.0080276 
-11540.6868589 
-10258.4272306 
-8976.44872081 
-7695.39605641 
-6416.87058746 
-5144.17301128 
-3882.22965851 
-2630.98125664 
-1346.95166289 
-686.57537534 
-20234.4803146 
-19898.6733259 
-19235.2725597 
-18587.1964534 
-17947.5051211 
-17308.6751095 
-16668.9468509 
-16028.4526475 
-15387.5537742 
-14746.4830837 
-14105.3509419 
-13464.2008209 
-12823.0471009 
-12181.8935072 
-11540.7405399 
-10899.5879918 
-10258.435611 
-9617.28315039 
-8976.13020934 
-8334.97595103 
-7693.81880366 
-7052.65679268 
-6411.49103851 
-5770.34014016 
-5129.28519395 
-4488.5874987 
-3848.94531494 
-3211.90771844 
-2580.00965732 
-1954.26724128 
-1323.28752837 
-670.317605581 
-336.877270274 
1.80079950951e-10 
1.83263182407e-10 
1.88720150618e-10 
1.93722371478e-10 
1.94631866179e-10 
1.86446413863e-10 
1.81898940355e-10 
1.95541360881e-10 
2.03726813197e-10 
1.99634087039e-10 
2.03499439522e-10 
1.90311766346e-10 
1.75532477442e-10 
1.80079950951e-10 
1.78260961547e-10 
1.72803993337e-10 
2.07137418329e-10 
2.36241248786e-10 
1.92358129425e-10 
1.5018031263e-10 
1.21303855849e-10 
1.81557879841e-10 
2.31239027926e-10 
2.16118678509e-10 
1.64504854183e-10 
6.76436684444e-11 
4.64410732093e-11 
8.79936123965e-11 
4.87716533826e-11 
3.38218342222e-12 
2.32489583141e-11 
-1.48858703142e-11 
-4.42383907284e-11 
20234.4803146 
19898.6733259 
19235.2725597 
18587.1964534 
17947.5051211 
17308.6751095 
16668.9468509 
16028.4526475 
15387.5537742 
14746.4830837 
14105.3509419 
13464.2008209 
12823.0471009 
12181.8935072 
11540.7405399 
10899.5879918 
10258.435611 
9617.28315039 
8976.13020934 
8334.97595103 
7693.81880366 
7052.65679268 
6411.49103851 
5770.34014016 
5129.28519395 
4488.5874987 
3848.94531494 
3211.90771844 
2580.00965732 
1954.26724128 
1323.28752837 
670.317605581 
336.877270274 
40453.4832941 
39779.9720164 
38461.6389054 
37177.6553041 
35899.2246531 
34619.8359412 
33339.0146692 
32057.3271106 
30775.2394371 
29492.996858 
28210.7040131 
26928.3985827 
25646.0917134 
24363.7856992 
23081.4805083 
21799.1757727 
20516.8712134 
19234.5666038 
17952.2615816 
16669.955325 
15387.6460908 
14105.3310004 
12823.0080276 
11540.6868589 
10258.4272306 
8976.44872081 
7695.39605641 
6416.87058746 
5144.17301128 
3882.22965851 
2630.98125664 
1346.95166289 
686.57537534 
60587.1259474 
59623.4036467 
57700.8652091 
55780.7693742 
53857.6263788 
51933.8535318 
50010.1134705 
48086.5089191 
46162.9895496 
44239.5106159 
42316.0474756 
40392.5895352 
38469.1329256 
36545.6764861 
34622.2199692 
32698.7633747 
30775.3067479 
28851.8501456 
26928.3936616 
25004.9374742 
23081.4818646 
21158.0270001 
19234.5718015 
17311.1099869 
15387.6189616 
13464.0328171 
11540.1925444 
9615.78033042 
7690.48977238 
5764.97979486 
3845.92254725 
1930.69396646 
971.902292033 
70617.050253 
69533.1412872 
67330.1227602 
65086.8479845 
62838.6044282 
60591.4115556 
58345.8021366 
56101.1162235 
53856.855944 
51612.7588586 
49368.7143849 
47124.6828761 
44880.6527354 
42636.6216311 
40392.589637 
38148.5571564 
35904.5244877 
33660.4918702 
31416.4596861 
29172.4288077 
26928.4011004 
24684.379692 
22440.3669688 
20196.353321 
17952.2767826 
15707.9075603 
13462.5624744 
11214.5489196 
8960.25229935 
6694.46867314 
4414.61996905 
2174.08906176 
1076.94911442 
</DataArray>
<DataArray type="Float64" Name="Nodal_sigma_yy" NumberOfComponents="1" format="ascii" >
271.891735784 
136.877991577 
2.59661272779 
0.886105052376 
-1.16972277444 
-0.616809320397 
-0.317836016626 
-0.126344567972 
-0.0439970959005 
-0.0121263148344 
-0.00209951648367 
0.000326844791289 
0.00054322599135 
0.000338300252224 
0.0001603905107 
6.03552271059e-05 
-5.4334923334e-06 
-0.000108601730517 
-0.000368703199911 
-0.00099525358246 
-0.00225644646707 
-0.00406639748871 
-0.00418151942995 
0.00724604507991 
0.0633480413962 
0.248780474273 
0.786348681024 
1.97490225817 
5.18218595083 
6.99239357444 
27.2160268067 
-267.924832718 
-583.895529805 
249.101062224 
143.699413572 
21.6311026063 
1.68351751839 
-1.63685590197 
-1.31989053397 
-0.699028229412 
-0.299931851521 
-0.108898527376 
-0.0325741474358 
-0.0068855807217 
-3.17614490086e-05 
0.00100414206418 
0.000719494928944 
0.000362264123964 
0.000137928841013 
-2.35677135834e-05 
-0.000279174566913 
-0.000893708125545 
-0.00229719985293 
-0.00491860862519 
-0.00799208402429 
-0.00502131690064 
0.0297672823808 
0.175500001176 
0.635925906472 
1.85555985548 
4.59791220997 
9.76172809901 
15.2972429132 
4.47849908329 
-251.734959102 
-494.890161501 
186.169746404 
128.14936558 
40.9797758435 
5.39670760529 
-1.79361901107 
-2.09214184495 
-1.20674786819 
-0.54420700777 
-0.206136064863 
-0.0651396897445 
-0.015497948898 
-0.00128986309585 
0.00139524396639 
0.00118544292513 
0.000632883071717 
0.000243566534436 
-5.9339244558e-05 
-0.000542247666601 
-0.00165933914093 
-0.00409302138388 
-0.00830548601988 
-0.0120541106775 
-0.00161132517798 
0.073314529711 
0.360052013419 
1.22262654319 
3.40445993906 
8.01136332592 
15.1254602923 
18.3485444324 
-26.7055669267 
-194.343725039 
-317.754575812 
97.8179295884 
71.4931264129 
28.8231476854 
6.28211025721 
-0.854192791796 
-1.53885628505 
-0.960581998839 
-0.449493237909 
-0.175412929999 
-0.0574194924866 
-0.0145959480652 
-0.00180021304453 
0.0008985323106 
0.000907944666011 
0.000508371925761 
0.000197258322352 
-5.89094816164e-05 
-0.000469316278313 
-0.00139355395541 
-0.00333714099889 
-0.00649359274803 
-0.00850131847139 
0.00313859228778 
0.0720831228778 
0.322313958477 
1.05075195821 
2.83538160643 
6.38594700713 
11.0869465226 
8.06429529997 
-25.4093023814 
-102.687472967 
-151.914397334 
4.32578417531e-11 
3.46460637957e-11 
1.91846538655e-11 
1.25055521494e-11 
2.18847162614e-12 
-2.88764567813e-11 
-2.83648660115e-11 
-3.69482222595e-13 
5.5138116295e-12 
4.32009983342e-12 
1.94688709598e-11 
2.92459390039e-11 
-1.68540736922e-11 
-5.71560576645e-11 
-5.77529135626e-11 
-8.70343797033e-11 
-2.11102246794e-11 
1.26178179016e-10 
1.40914835356e-10 
7.2802208706e-11 
-4.68673988507e-11 
2.67306177193e-11 
2.35900188272e-10 
2.86846102426e-10 
1.6029133576e-10 
-3.52642359758e-11 
-4.15596446146e-11 
1.37445610449e-10 
7.01536606584e-11 
-1.09995568209e-10 
-1.59564805813e-10 
-1.70995662074e-10 
-1.24288135339e-10 
-97.8179295883 
-71.4931264128 
-28.8231476854 
-6.28211025718 
0.8541927918 
1.53885628502 
0.96058199882 
0.449493237903 
0.175412929974 
0.0574194924651 
0.0145959480507 
0.00180021298544 
-0.000898532405557 
-0.000907944803089 
-0.000508371984878 
-0.000197258254317 
5.89095828332e-05 
0.000469316332357 
0.00139355389919 
0.00333714095147 
0.00649359260964 
0.00850131834282 
-0.0031385922518 
-0.0720831226786 
-0.322313958454 
-1.05075195852 
-2.83538160656 
-6.38594700686 
-11.0869465222 
-8.06429529982 
25.4093023813 
102.687472966 
151.914397334 
-186.169746404 
-128.14936558 
-40.9797758434 
-5.39670760528 
1.79361901106 
2.09214184495 
1.20674786821 
0.544207007795 
0.206136064908 
0.06513968978 
0.0154979488917 
0.00128986299569 
-0.0013952440388 
-0.00118544298573 
-0.000632883152321 
-0.000243566511017 
5.93392962855e-05 
0.000542247542967 
0.00165933884739 
0.00409302116543 
0.00830548587516 
0.0120541107136 
0.00161132538062 
-0.0733145296264 
-0.360052013445 
-1.22262654312 
-3.40445993912 
-8.01136332623 
-15.1254602926 
-18.3485444325 
26.7055669269 
194.343725039 
317.754575812 
-249.101062223 
-143.699413572 
-21.6311026062 
-1.68351751839 
1.63685590197 
1.31989053397 
0.699028229392 
0.299931851515 
0.108898527439 
0.0325741474687 
0.00688558063302 
3.17613471452e-05 
-0.00100414214012 
-0.000719495104704 
-0.000362264385558 
-0.000137929168432 
2.35674820033e-05 
0.00027917453292 
0.00089370813896 
0.00229719983838 
0.00491860856141 
0.00799208426827 
0.00502131730639 
-0.0297672824516 
-0.175500001262 
-0.635925906162 
-1.8555598553 
-4.59791220996 
-9.76172809916 
-15.2972429132 
-4.47849908293 
251.734959102 
494.890161502 
-271.891735784 
-136.877991577 
-2.5966127278 
-0.886105052379 
1.16972277446 
0.616809320407 
0.317836016575 
0.126344567898 
0.0439970958751 
0.0121263147776 
0.00209951625084 
-0.000326844971369 
-0.000543226154605 
-0.000338300642397 
-0.000160390875408 
-6.03556186434e-05 
5.43317037227e-06 
0.000108601765533 
0.000368703419554 
0.000995253749807 
0.00225644644593 
0.00406639759399 
0.00418151943632 
-0.00724604556603 
-0.0633480417926 
-0.248780474326 
-0.786348680738 
-1.97490225725 
-5.18218594981 
-6.99239357389 
-27.2160268064 
267.924832718 
583.895529805 
</DataArray>
<DataArray type="Float64" Name="Nodal_sigma_xy" NumberOfComponents="1" format="ascii" >
-1051.91868038 
-1123.12300222 
-1200.69247584 
-1206.49538095 
-1204.79946541 
-1202.97932357 
-1201.96895482 
-1201.5166444 
-1201.34526141 
-1201.29093022 
-1201.2779091 
-1201.27676682 
-1201.27789637 
-1201.27886973 
-1201.27939521 
-1201.27962285 
-1201.27968184 
-1201.27957463 
-1201.2791038 
-1201.27772089 
-1201.27433153 
-1201.26748327 
-1201.25763419 
-1201.25672913 
-1201.31853097 
-1201.61891725 
-1202.63642655 
-1205.48925325 
-1212.48859567 
-1227.21589905 
-1251.85263293 
-1170.832128 
-1074.98122081 
-2078.64265696 
-2111.45723596 
-2154.61050269 
-2165.86836935 
-2166.09459863 
-2164.76909741 
-2163.79430149 
-2163.30345909 
-2163.10045589 
-2163.0295957 
-2163.00957251 
-2163.00592448 
-2163.00631986 
-2163.00714537 
-2163.0076738 
-2163.00792 
-2163.00797545 
-2163.00782273 
-2163.00723781 
-2163.00565883 
-2163.00211991 
-2162.99588295 
-2162.98995381 
-2163.00361706 
-2163.10854127 
-2163.51661571 
-2164.75582512 
-2167.92309336 
-2174.64964514 
-2185.46380297 
-2187.25031853 
-2135.14790154 
-2087.5935442 
-3789.0214593 
-3771.57891039 
-3758.2989652 
-3764.28426504 
-3766.33919972 
-3766.45028912 
-3766.21272329 
-3766.03311749 
-3765.9426198 
-3765.90537458 
-3765.89245787 
-3765.88884417 
-3765.8882051 
-3765.88829025 
-3765.88844477 
-3765.88853438 
-3765.88854664 
-3765.88845623 
-3765.88817162 
-3765.88751801 
-3765.88635017 
-3765.88518867 
-3765.88750631 
-3765.90635752 
-3765.98063272 
-3766.20775821 
-3766.78820302 
-3767.9932526 
-3769.59664226 
-3768.12473639 
-3752.43496528 
-3761.21562436 
-3783.40430799 
-4811.98234304 
-4779.16776404 
-4736.01449731 
-4724.75663065 
-4724.53040137 
-4725.85590259 
-4726.8306985 
-4727.32154091 
-4727.5245441 
-4727.5954043 
-4727.61542748 
-4727.61907551 
-4727.61868013 
-4727.61785463 
-4727.6173262 
-4727.61708 
-4727.61702455 
-4727.61717727 
-4727.61776219 
-4727.61934117 
-4727.62288009 
-4727.62911704 
-4727.63504619 
-4727.62138294 
-4727.51645873 
-4727.10838429 
-4725.86917488 
-4722.70190664 
-4715.97535486 
-4705.16119703 
-4703.37468147 
-4755.47709846 
-4803.0314558 
-5151.288401 
-5114.969177 
-5063.95959376 
-5046.18608896 
-5043.77213514 
-5045.37009819 
-5046.8555986 
-5047.66712061 
-5048.01949899 
-5048.14832061 
-5048.18717516 
-5048.19554484 
-5048.19569342 
-5048.19454976 
-5048.19371524 
-5048.1933084 
-5048.19322487 
-5048.19351291 
-5048.19455296 
-5048.19724308 
-5048.20296813 
-5048.21213938 
-5048.21735319 
-5048.18055583 
-5047.97020358 
-5047.21556632 
-5045.0371674 
-5039.77424154 
-5029.56811981 
-5017.78462816 
-5024.5274365 
-5087.98662329 
-5139.46016322 
-4811.98234304 
-4779.16776404 
-4736.01449731 
-4724.75663065 
-4724.53040137 
-4725.85590259 
-4726.8306985 
-4727.32154091 
-4727.5245441 
-4727.5954043 
-4727.61542748 
-4727.61907551 
-4727.61868014 
-4727.61785463 
-4727.6173262 
-4727.61708 
-4727.61702455 
-4727.61717727 
-4727.61776219 
-4727.61934117 
-4727.62288009 
-4727.62911704 
-4727.63504619 
-4727.62138294 
-4727.51645873 
-4727.10838429 
-4725.86917488 
-4722.70190664 
-4715.97535486 
-4705.16119703 
-4703.37468147 
-4755.47709846 
-4803.0314558 
-3789.0214593 
-3771.57891039 
-3758.2989652 
-3764.28426504 
-3766.33919972 
-3766.45028912 
-3766.21272329 
-3766.03311749 
-3765.9426198 
-3765.90537458 
-3765.89245787 
-3765.88884417 
-3765.8882051 
-3765.88829025 
-3765.88844477 
-3765.88853438 
-3765.88854664 
-3765.88845623 
-3765.88817162 
-3765.88751801 
-3765.88635017 
-3765.88518867 
-3765.88750631 
-3765.90635752 
-3765.98063272 
-3766.20775821 
-3766.78820302 
-3767.9932526 
-3769.59664226 
-3768.12473639 
-3752.43496528 
-3761.21562436 
-3783.40430799 
-2078.64265696 
-2111.45723596 
-2154.61050269 
-2165.86836935 
-2166.09459863 
-2164.76909741 
-2163.79430149 
-2163.30345909 
-2163.10045589 
-2163.0295957 
-2163.00957251 
-2163.00592448 
-2163.00631986 
-2163.00714537 
-2163.0076738 
-2163.00792 
-2163.00797545 
-2163.00782273 
-2163.00723781 
-2163.00565883 
-2163.00211991 
-2162.99588295 
-2162.98995381 
-2163.00361706 
-2163.10854127 
-2163.51661571 
-2164.75582512 
-2167.92309336 
-2174.64964514 
-2185.46380297 
-2187.25031853 
-2135.14790154 
-2087.5935442 
-1051.91868038 
-1123.12300222 
-1200.69247584 
-1206.49538095 
-1204.79946541 
-1202.97932357 
-1201.96895482 
-1201.5166444 
-1201.34526141 
-1201.29093022 
-1201.2779091 
-1201.27676683 
-1201.27789637 
-1201.27886973 
-1201.27939521 
-1201.27962285 
-1201.27968184 
-1201.27957463 
-1201.2791038 
-1201.27772089 
-1201.27433153 
-1201.26748327 
-1201.25763419 
-1201.25672913 
-1201.31853097 
-1201.61891725 
-1202.63642655 
-1205.48925325 
-1212.48859567 
-1227.21589905 
-1251.85263293 
-1170.832128 
-1074.98122081 
</DataArray>
</PointData>
<CellData>
</CellData>
<Points>
<DataArray type="Float64" Name="Points" NumberOfComponents="3" format="ascii">
0.0 -2.0 0.0
0.5 -2.0 0.0
1.0 -2.0 0.0
1.5 -2.0 0.0
2.0 -2.0 0.0
2.5 -2.0 0.0
3.0 -2.0 0.0
3.5 -2.0 0.0
4.0 -2.0 0.0
4.5 -2.0 0.0
5.0 -2.0 0.0
5.5 -2.0 0.0
6.0 -2.0 0.0
6.5 -2.0 0.0
7.0 -2.0 0.0
7.5 -2.0 0.0
8.0 -2.0 0.0
8.5 -2.0 0.0
9.0 -2.0 0.0
9.5 -2.0 0.0
10.0 -2.0 0.0
10.5 -2.0 0.0
11.0 -2.0 0.0
11.5 -2.0 0.0
12.0 -2.0 0.0
12.5 -2.0 0.0
13.0 -2.0 0.0
13.5 -2.0 0.0
14.0 -2.0 0.0
14.5 -2.0 0.0
15.0 -2.0 0.0
15.5 -2.0 0.0
16.0 -2.0 0.0
0.0 -1.5 0.0
0.5 -1.5 0.0
1.0 -1.5 0.0
1.5 -1.5 0.0
2.0 -1.5 0.0
2.5 -1.5 0.0
3.0 -1.5 0.0
3.5 -1.5 0.0
4.0 -1.5 0.0
4.5 -1.5 0.0
5.0 -1.5 0.0
5.5 -1.5 0.0
6.0 -1.5 0.0
6.5 -1.5 0.0
7.0 -1.5 0.0
7.5 -1.5 0.0
8.0 -1.5 0.0
8.5 -1.5 0.0
9.0 -1.5 0.0
9.5 -1.5 0.0
10.0 -1.5 0.0
10.5 -1.5 0.0
11.0 -1.5 0.0
11.5 -1.5 0.0
12.0 -1.5 0.0
12.5 -1.5 0.0
13.0 -1.5 0.0
13.5 -1.5 0.0
14.0 -1.5 0.0
14.5 -1.5 0.0
15.0 -1.5 0.0
15.5 -1.5 0.0
16.0 -1.5 0.0
0.0 -1.0 0.0
0.5 -1.0 0.0
1.0 -1.0 0.0
1.5 -1.0 0.0
2.0 -1.0 0.0
2.5 -1.0 0.0
3.0 -1.0 0.0
3.5 -1.0 0.0
4.0 -1.0 0.0
4.5 -1.0 0.0
5.0 -1.0 0.0
5.5 -1.0 0.0
6.0 -1.0 0.0
6.5 -1.0 0.0
7.0 -1.0 0.0
7.5 -1.0 0.0
8.0 -1.0 0.0
8.5 -1.0 0.0
9.0 -1.0 0.0
9.5 -1.0 0.0
10.0 -1.0 0.0
10.5 -1.0 0.0
11.0 -1.0 0.0
11.5 -1.0 0.0
12.0 -1.0 0.0
12.5 -1.0 0.0
13.0 -1.0 0.0
13.5 -1.0 0.0
14.0 -1.0 0.0
14.5 -1.0 0.0
15.0 -1.0 0.0
15.5 -1.0 0.0
16.0 -1.0 0.0
0.0 -0.5 0.0
0.5 -0.5 0.0
1.0 -0.5 0.0
1.5 -0.5 0.0
2.0 -0.5 0.0
2.5 -0.5 0.0
3.0 -0.5 0.0
3.5 -0.5 0.0
4.0 -0.5 0.0
4.5 -0.5 0.0
5.0 -0.5 0.0
5.5 -0.5 0.0
6.0 -0.5 0.0
6.5 -0.5 0.0
7.0 -0.5 0.0
7.5 -0.5 0.0
8.0 -0.5 0.0
8.5 -0.5 0.0
9.0 -0.5 0.0
9.5 -0.5 0.0
10.0 -0.5 0.0
10.5 -0.5 0.0
11.0 -0.5 0.0
11.5 -0.5 0.0
12.0 -0.5 0.0
12.5 -0.5 0.0
13.0 -0.5 0.0
13.5 -0.5 0.0
14.0 -0.5 0.0
14.5 -0.5 0.0
15.0 -0.5 0.0
15.5 -0.5 0.0
16.0 -0.5 0.0
0.0 0.0 0.0
0.5 0.0 0.0
1.0 0.0 0.0
1.5 0.0 0.0
2.0 0.0 0.0
2.5 0.0 0.0
3.0 0.0 0.0
3.5 0.0 0.0
4.0 0.0 0.0
4.5 0.0 0.0
5.0 0.0 0.0
5.5 0.0 0.0
6.0 0.0 0.0
6.5 0.0 0.0
7.0 0.0 0.0
7.5 0.0 0.0
8.0 0.0 0.0
8.5 0.0 0.0
9.0 0.0 0.0
9.5 0.0 0.0
10.0 0.0 0.0
10.5 0.0 0.0
11.0 0.0 0.0
11.5 0.0 0.0
12.0 0.0 0.0
12.5 0.0 0.0
13.0 0.0 0.0
13.5 0.0 0.0
14.0 0.0 0.0
14.5 0.0 0.0
15.0 0.0 0.0
15.5 0.0 0.0
16.0 0.0 0.0
0.0 0.5 0.0
0.5 0.5 0.0
1.0 0.5 0.0
1.5 0.5 0.0
2.0 0.5 0.0
2.5 0.5 0.0
3.0 0.5 0.0
3.5 0.5 0.0
4.0 0.5 0.0
4.5 0.5 0.0
5.0 0.5 0.0
5.5 0.5 0.0
6.0 0.5 0.0
6.5 0.5 0.0
7.0 0.5 0.0
7.5 0.5 0.0
8.0 0.5 0.0
8.5 0.5 0.0
9.0 0.5 0.0
9.5 0.5 0.0
10.0 0.5 0.0
10.5 0.5 0.0
11.0 0.5 0.0
11.5 0.5 0.0
12.0 0.5 0.0
12.5 0.5 0.0
13.0 0.5 0.0
13.5 0.5 0.0
14.0 0.5 0.0
14.5 0.5 0.0
15.0 0.5 0.0
15.5 0.5 0.0
16.0 0.5 0.0
0.0 1.0 0.0
0.5 1.0 0.0
1.0 1.0 0.0
1.5 1.0 0.0
2.0 1.0 0.0
2.5 1.0 0.0
3.0 1.0 0.0
3.5 1.0 0.0
4.0 1.0 0.0
4.5 1.0 0.0
5.0 1.0 0.0
5.5 1.0 0.0
6.0 1.0 0.0
6.5 1.0 0.0
7.0 1.0 0.0
7.5 1.0 0.0
8.0 1.0 0.0
8.5 1.0 0.0
9.0 1.0 0.0
9.5 1.0 0.0
10.0 1.0 0.0
10.5 1.0 0.0
11.0 1.0 0.0
11.5 1.0 0.0
12.0 1.0 0.0
12.5 1.0 0.0
13.0 1.0 0.0
13.5 1.0 0.0
14.0 1.0 0.0
14.5 1.0 0.0
15.0 1.0 0.0
15.5 1.0 0.0
16.0 1.0 0.0
0.0 1.5 0.0
0.5 1.5 0.0
1.0 1.5 0.0
1.5 1.5 0.0
2.0 1.5 0.0
2.5 1.5 0.0
3.0 1.5 0.0
3.5 1.5 0.0
4.0 1.5 0.0
4.5 1.5 0.0
5.0 1.5 0.0
5.5 1.5 0.0
6.0 1.5 0.0
6.5 1.5 0.0
7.0 1.5 0.0
7.5 1.5 0.0
8.0 1.5 0.0
8.5 1.5 0.0
9.0 1.5 0.0
9.5 1.5 0.0
10.0 1.5 0.0
10.5 1.5 0.0
11.0 1.5 0.0
11.5 1.5 0.0
12.0 1.5 0.0
12.5 1.5 0.0
13.0 1.5 0.0
13.5 1.5 0.0
14.0 1.5 0.0
14.5 1.5 0.0
15.0 1.5 0.0
15.5 1.5 0.0
16.0 1.5 0.0
0.0 2.0 0.0
0.5 2.0 0.0
1.0 2.0 0.0
1.5 2.0 0.0
2.0 2.0 0.0
2.5 2.0 0.0
3.0 2.0 0.0
3.5 2.0 0.0
4.0 2.0 0.0
4.5 2.0 0.0
5.0 2.0 0.0
5.5 2.0 0.0
6.0 2.0 0.0
6.5 2.0 0.0
7.0 2.0 0.0
7.5 2.0 0.0
8.0 2.0 0.0
8.5 2.0 0.0
9.0 2.0 0.0
9.5 2.0 0.0
10.0 2.0 0.0
10.5 2.0 0.0
11.0 2.0 0.0
11.5 2.0 0.0
12.0 2.0 0.0
12.5 2.0 0.0
13.0 2.0 0.0
13.5 2.0 0.0
14.0 2.0 0.0
14.5 2.0 0.0
15.0 2.0 0.0
15.5 2.0 0.0
16.0 2.0 0.0
</DataArray>
</Points>
<Cells>
<DataArray type="Int64" Name="connectivity" format="ascii">
0 1 34 33 
1 2 35 34 
2 3 36 35 
3 4 37 36 
4 5 38 37 
5 6 39 38 
6 7 40 39 
7 8 41 40 
8 9 42 41 
9 10 43 42 
10 11 44 43 
11 12 45 44 
12 13 46 45 
13 14 47 46 
14 15 48 47 
15 16 49 48 
16 17 50 49 
17 18 51 50 
18 19 52 51 
19 20 53 52 
20 21 54 53 
21 22 55 54 
22 23 56 55 
23 24 57 56 
24 25 58 57 
25 26 59 58 
26 27 60 59 
27 28 61 60 
28 29 62 61 
29 30 63 62 
30 31 64 63 
31 32 65 64 
33 34 67 66 
34 35 68 67 
35 36 69 68 