<?xml version="1.0"?>
<VTKFile type="UnstructuredGrid" version="0.1" byte_order="LittleEndian" compressor="vtkZLibDataCompressor">
<UnstructuredGrid>
<Piece NumberOfPoints="297" NumberOfCells="256">
<PointData>
<DataArray type="Float64" Name="displacement" NumberOfComponents="3" format="ascii" >
0.0 -0.036  0.
-0.0576185985478 -0.0484230200528  0.
-0.113517607689 -0.0754261239461  0.
-0.16758251878 -0.116218900682  0.
-0.219802589916 -0.170317164262  0.
-0.27018380637 -0.237243466918  0.
-0.318729924067 -0.316535860201  0.
-0.365442942936 -0.40773519482  0.
-0.41032369389 -0.510383430674  0.
-0.453372479461 -0.624022693706  0.
-0.494589389233 -0.748195100212  0.
-0.533974442003 -0.88244272789  0.
-0.571527637701 -1.02630762973  0.
-0.607248973487 -1.1793318467  0.
-0.641138447354 -1.34105741498  0.
-0.673196058291 -1.51102636912  0.
-0.703421805875 -1.68878074318  0.
-0.731815689991 -1.87386257109  0.
-0.758377710803 -2.06581388661  0.
-0.783107869116 -2.26417672335  0.
-0.806006167417 -2.46849311513  0.
-0.827072612103 -2.67830509795  0.
-0.846307216919 -2.89315471702  0.
-0.863710004399 -3.11258404656  0.
-0.879280989374 -3.33613523675  0.
-0.893020092075 -3.56335060811  0.
-0.904926828789 -3.79377276364  0.
-0.914999451962 -4.02694462085  0.
-0.923232703981 -4.26240814344  0.
-0.929613421078 -4.4997020863  0.
-0.934108177084 -4.73833327322  0.
-0.936665110785 -4.97778875091  0.
-0.937306397169 -5.216598312  0.
0.0037734375 -0.02025  0.
-0.0396059893433 -0.0335201531789  0.
-0.0814923967678 -0.0609909423288  0.
-0.122016074094 -0.102273178102  0.
-0.161170596872 -0.156852532466  0.
-0.19895265368 -0.224260134217  0.
-0.235361052757 -0.304033424093  0.
-0.270395536502 -0.395713620294  0.
-0.304056078134 -0.498842705769  0.
-0.336342693533 -0.612962824366  0.
-0.367255397708 -0.737616090849  0.
-0.396794198863 -0.872344581053  0.
-0.424959100595 -1.01669034651  0.
-0.451750104231 -1.17019542751  0.
-0.477167210178 -1.33240185994  0.
-0.501210418528 -1.50285167825  0.
-0.523879729298 -1.6810869165  0.
-0.545175142503 -1.86664960861  0.
-0.565096658192 -2.05908178837  0.
-0.58364427645 -2.25792548935  0.
-0.600817997318 -2.46272274524  0.
-0.616617820388 -2.67301559151  0.
-0.631043743451 -2.88834607166  0.
-0.644095758704 -3.10825625539  0.
-0.655773843838 -3.33228828374  0.
-0.666077944705 -3.55998445849  0.
-0.67500795355 -3.79088738432  0.
-0.682563723044 -4.02453994312  0.
-0.688745339473 -4.26048476513  0.
-0.693554916657 -4.49825849816  0.
-0.697002913202 -4.73738573355  0.
-0.699139754885 -4.97726569834  0.
-0.699786726294 -5.21749395142  0.
0.0043125 -0.009  0.
-0.0246296370974 -0.0227794804915  0.
-0.0525897293229 -0.0506805144541  0.
-0.0796018590202 -0.0923142839968  0.
-0.105698486485 -0.147238210954  0.
-0.130882471242 -0.214987984175  0.
-0.155152855217 -0.29510385803  0.
-0.178508447672 -0.387127053261  0.
-0.200948571437 -0.49059941457  0.
-0.222472922113 -0.605062936236  0.
-0.243081384625 -0.730059656337  0.
-0.262773922682 -0.865131616783  0.
-0.281550527673 -1.0098208568  0.
-0.2994111989 -1.16366941292  0.
-0.316355937152 -1.32621932025  0.
-0.33238474309 -1.49701261321  0.
-0.347497617053 -1.67559132601  0.
-0.361694559103 -1.86149749275  0.
-0.374975568977 -2.05427314751  0.
-0.38734064576 -2.25346032444  0.
-0.398789787168 -2.45860105809  0.
-0.40932298855 -2.66923738442  0.
-0.418940243129 -2.88491134335  0.
-0.427641549879 -3.10516498445  0.
-0.435426949426 -3.32954037598  0.
-0.442296642267 -3.55757961354  0.
-0.448251311129 -3.78882478058  0.
-0.453292864059 -4.02281779112  0.
-0.4574258624 -4.25909931732  0.
-0.46065889795 -4.49720709022  0.
-0.463004207369 -4.73666185618  0.
-0.464421909485 -4.97700797956  0.
-0.464839352406 -5.21795999613  0.
0.0026953125 -0.00225  0.
-0.0117819413706 -0.0163138253657  0.
-0.0257682050209 -0.044477078124  0.
-0.0392784575637 -0.0863388260541  0.
-0.052325486687 -0.14147113906  0.
-0.0649160053477 -0.209425994353  0.
-0.0770503407569 -0.28974676214  0.
-0.0887277562079 -0.381975383192  0.
-0.0999476763597 -0.485653533778  0.
-0.110709807989 -0.600323030051  0.
-0.121014029359 -0.725525800513  0.
-0.130860297884 -0.860803837721  0.
-0.140248601495 -1.00569916188  0.
-0.149178937976 -1.15975380347  0.
-0.157651307555 -1.3225097961  0.
-0.165665710717 -1.49350917406  0.
-0.17322214775 -1.67229397173  0.
-0.180320618691 -1.85840622347  0.
-0.186961123244 -2.05138796378  0.
-0.193143660481 -2.25078122758  0.
-0.198868228291 -2.45612805048  0.
-0.204134822959 -2.66697046839  0.
-0.208943441003 -2.88285051411  0.
-0.213294090809 -3.10331020334  0.
-0.217186835755 -3.32789149184  0.
-0.220621921438 -3.55613616166  0.
-0.223600091258 -3.78758558565  0.
-0.226123227483 -4.02178027572  0.
-0.228195168487 -4.25825976981  0.
-0.229821169799 -4.49656314269  0.
-0.230996528945 -4.73624134014  0.
-0.231698706139 -4.97689219029  0.
-0.231906131751 -5.2181868365  0.
0.0 0.0  0.
8.2971363963e-17 -0.0141561604229  0.
1.69829984496e-16 -0.0424066110243  0.
2.6186784723e-16 -0.0843459542641  0.
3.53597337046e-16 -0.139549110728  0.
4.46396652006e-16 -0.207572243827  0.
5.36462434367e-16 -0.287961217945  0.
6.3444619997e-16 -0.380258225361  0.
7.30880155509e-16 -0.484004931592  0.
8.34357473125e-16 -0.598743068838  0.
9.28485550801e-16 -0.724014516936  0.
1.01974831443e-15 -0.859361244775  0.
1.10004314388e-15 -1.00432526338  0.
1.18370455039e-15 -1.15844860017  0.
1.2820549582e-15 -1.32127328797  0.
1.34375623949e-15 -1.49234136098  0.
1.45033959204e-15 -1.67119485364  0.
1.53773133864e-15 -1.85737580044  0.
1.61273262374e-15 -2.05042623607  0.
1.71704784195e-15 -2.2498881958  0.
1.81974102727e-15 -2.45530371567  0.
1.86758452631e-15 -2.66621483135  0.
1.99479398854e-15 -2.88216357171  0.
2.03947482824e-15 -3.10269193537  0.
2.05838676359e-15 -3.32734182221  0.
2.08643442776e-15 -3.55565486804  0.
2.11935202147e-15 -3.78717209963  0.
2.26600776566e-15 -4.02143350437  0.
2.25280638893e-15 -4.25797795312  0.
2.22702371984e-15 -4.49634787769  0.
2.31151788796e-15 -4.73610539135  0.
2.2981527532e-15 -4.97685682487  0.
2.32416350742e-15 -5.21825644001  0.
-0.0026953125 -0.00225  0.
0.0117819413706 -0.0163138253657  0.
0.0257682050209 -0.044477078124  0.
0.0392784575637 -0.0863388260541  0.
0.052325486687 -0.14147113906  0.
0.0649160053477 -0.209425994353  0.
0.0770503407569 -0.28974676214  0.
0.0887277562079 -0.381975383192  0.
0.0999476763597 -0.485653533778  0.
0.110709807989 -0.600323030051  0.
0.121014029359 -0.725525800513  0.
0.130860297884 -0.860803837721  0.
0.140248601495 -1.00569916188  0.
0.149178937976 -1.15975380347  0.
0.157651307555 -1.3225097961  0.
0.165665710717 -1.49350917406  0.
0.17322214775 -1.67229397173  0.
0.180320618691 -1.85840622347  0.
0.186961123244 -2.05138796378  0.
0.193143660481 -2.25078122758  0.
0.198868228291 -2.45612805048  0.
0.204134822959 -2.66697046839  0.
0.208943441003 -2.88285051411  0.
0.213294090809 -3.10331020334  0.
0.217186835755 -3.32789149184  0.
0.220621921438 -3.55613616166  0.
0.223600091258 -3.78758558565  0.
0.226123227483 -4.02178027572  0.
0.228195168487 -4.25825976981  0.
0.229821169799 -4.49656314269  0.
0.230996528945 -4.73624134014  0.
0.231698706139 -4.97689219029  0.
0.231906131751 -5.2181868365  0.
-0.0043125 -0.009  0.
0.0246296370974 -0.0227794804915  0.
0.0525897293229 -0.0506805144541  0.
0.0796018590202 -0.0923142839968  0.
0.105698486485 -0.147238210954  0.
0.130882471242 -0.214987984175  0.
0.155152855217 -0.29510385803  0.
0.178508447672 -0.387127053261  0.
0.200948571437 -0.49059941457  0.
0.222472922113 -0.605062936236  0.
0.243081384625 -0.730059656337  0.
0.262773922682 -0.865131616783  0.
0.281550527673 -1.0098208568  0.
0.2994111989 -1.16366941292  0.
0.316355937152 -1.32621932025  0.
0.33238474309 -1.49701261321  0.
0.347497617053 -1.67559132601  0.
0.361694559103 -1.86149749275  0.
0.374975568977 -2.05427314751  0.
0.38734064576 -2.25346032444  0.
0.398789787168 -2.45860105809  0.
0.40932298855 -2.66923738442  0.
0.418940243129 -2.88491134335  0.
0.427641549879 -3.10516498445  0.
0.435426949426 -3.32954037598  0.
0.442296642267 -3.55757961354  0.
0.448251311129 -3.78882478058  0.
0.453292864059 -4.02281779112  0.
0.4574258624 -4.25909931732  0.
0.46065889795 -4.49720709022  0.
0.463004207369 -4.73666185618  0.
0.464421909485 -4.97700797956  0.
0.464839352406 -5.21795999613  0.
-0.0037734375 -0.02025  0.
0.0396059893433 -0.0335201531789  0.
0.0814923967678 -0.0609909423288  0.
0.122016074094 -0.102273178102  0.
0.161170596872 -0.156852532466  0.
0.19895265368 -0.224260134217  0.
0.235361052757 -0.304033424093  0.
0.270395536502 -0.395713620294  0.
0.304056078134 -0.498842705769  0.
0.336342693533 -0.612962824366  0.
0.367255397708 -0.737616090849  0.
0.396794198863 -0.872344581053  0.
0.424959100595 -1.01669034651  0.
0.451750104231 -1.17019542751  0.
0.477167210178 -1.33240185994  0.
0.501210418528 -1.50285167825  0.
0.523879729298 -1.6810869165  0.
0.545175142503 -1.86664960861  0.
0.565096658192 -2.05908178837  0.
0.58364427645 -2.25792548935  0.
0.600817997318 -2.46272274524  0.
0.616617820388 -2.67301559151  0.
0.631043743451 -2.88834607166  0.
0.644095758704 -3.10825625539  0.
0.655773843838 -3.33228828374  0.
0.666077944705 -3.55998445849  0.
0.67500795355 -3.79088738432  0.
0.682563723044 -4.02453994312  0.
0.688745339473 -4.26048476513  0.
0.693554916657 -4.49825849816  0.
0.697002913202 -4.73738573355  0.
0.699139754885 -4.97726569834  0.
0.699786726294 -5.21749395142  0.
0.0 -0.036  0.
0.0576185985478 -0.0484230200528  0.
0.113517607689 -0.0754261239461  0.
0.16758251878 -0.116218900682  0.
0.219802589916 -0.170317164262  0.
0.27018380637 -0.237243466918  0.
0.318729924067 -0.316535860201  0.
0.365442942936 -0.40773519482  0.
0.41032369389 -0.510383430674  0.
0.453372479461 -0.624022693706  0.
0.494589389233 -0.748195100212  0.
0.533974442003 -0.88244272789  0.
0.571527637701 -1.02630762973  0.
0.607248973487 -1.1793318467  0.
0.641138447354 -1.34105741498  0.
0.673196058291 -1.51102636912  0.
0.703421805875 -1.68878074318  0.
0.731815689991 -1.87386257109  0.
0.758377710803 -2.06581388661  0.
0.783107869116 -2.26417672335  0.
0.806006167417 -2.46849311513  0.
0.827072612103 -2.67830509795  0.
0.846307216919 -2.89315471702  0.
0.863710004399 -3.11258404656  0.
0.879280989374 -3.33613523675  0.
0.893020092075 -3.56335060811  0.
0.904926828789 -3.79377276364  0.
0.914999451962 -4.02694462085  0.
0.923232703981 -4.26240814344  0.
0.929613421078 -4.4997020863  0.
0.934108177084 -4.73833327322  0.
0.936665110785 -4.97778875091  0.
0.937306397169 -5.216598312  0.
</DataArray>
<DataArray type="Float64" Name="Nodal_sigma_xx" NumberOfComponents="1" format="ascii" >
-100881.500361 
-99333.0589818 
-96185.8896575 
-92981.2114065 
-89769.4348974 
-86559.1593651 
-83351.1459094 
-80144.4517479 
-76938.3656343 
-73732.5126551 
-70526.7348356 
-67320.9755373 
-64115.2181935 
-60909.459473 
-57703.6994815 
-54497.9387949 
-51292.1778396 
-48086.4169574 
-44880.6566944 
-41674.8982967 
-38469.1444292 
-35263.39956 
-32057.6670983 
-28851.9333157 
-25646.1096894 
-22439.8679433 
-19232.2321062 
-16020.7841708 
-12800.3604276 
-9563.52667592 
-6306.59995578 
-3105.8415168 
-1538.49873488 
-86553.0370678 
-85176.2909238 
-82429.8074416 
-79686.8133918 
-76939.4662554 
-74191.2193311 
-71443.0192436 
-68695.0127416 
-65947.127928 
-63199.3008798 
-60451.4963937 
-57703.699336 
-54955.9041794 
-52208.1092659 
-49460.3142417 
-46712.5191067 
-43964.7239255 
-41216.9287794 
-38469.1338023 
-35721.3392489 
-32973.5455209 
-30225.7528573 
-27477.9597164 
-24730.1571242 
-21982.3128023 
-19234.3325958 
-16485.9893492 
-13736.8290435 
-10986.4139605 
-8235.68542123 
-5494.1750675 
-2758.13423779 
-1388.43184576 
-57790.6904202 
-56828.5314519 
-54945.1984363 
-53110.9361487 
-51284.6066473 
-49456.9084874 
-47627.1638132 
-45796.1815865 
-43964.6277673 
-42132.8526543 
-40301.005733 
-38469.1408324 
-36637.2738763 
-34805.4081417 
-32973.5435833 
-31141.6796752 
-29309.8160191 
-27477.9522912 
-25646.0879737 
-23814.2218929 
-21982.3515583 
-20150.4728577 
-18318.5828966 
-16486.6955127 
-14654.8960437 
-12823.4981726 
-10993.4229377 
-9166.95798209 
-7348.81858755 
-5546.0423693 
-3758.54465235 
-1924.21666127 
-980.821964771 
-28906.4004495 
-28426.6761798 
-27478.9607996 
-26553.1377906 
-25639.2930302 
-24726.6787279 
-23812.7812156 
-22897.7894964 
-21982.2196775 
-21066.4044052 
-20150.5013455 
-19234.5726013 
-18318.6387156 
-17402.7050103 
-16486.7721998 
-15570.8399884 
-14654.9080157 
-13738.9759291 
-12823.0431562 
-11907.1085015 
-10991.1697195 
-10075.2239895 
-9159.27291216 
-8243.34305737 
-7327.55027707 
-6412.26785529 
-5498.49330706 
-4588.43959777 
-3685.72808188 
-2791.81034469 
-1890.41075482 
-957.596579401 
-481.253243249 
1.78260961547e-10 
1.80079950951e-10 
1.89174897969e-10 
1.86446413863e-10 
1.82353687705e-10 
1.87810655916e-10 
1.91448634723e-10 
1.90539140021e-10 
1.90084392671e-10 
1.83717929758e-10 
1.96905602934e-10 
1.86446413863e-10 
1.73713488039e-10 
2.06910044653e-10 
2.03499439522e-10 
1.91676008399e-10 
1.4620127331e-10 
9.70885594143e-11 
1.30057742354e-10 
1.69848135556e-10 
1.63936419995e-10 
2.03272065846e-10 
2.86263457383e-10 
2.84785528493e-10 
1.78374648385e-10 
1.21872290038e-10 
1.39607436722e-10 
3.9221959014e-11 
-8.56061888044e-11 
2.25099938689e-11 
9.19158082979e-11 
-8.54072368384e-11 
-1.97502458832e-10 
28906.4004495 
28426.6761798 
27478.9607996 
26553.1377906 
25639.2930302 
24726.6787279 
23812.7812156 
22897.7894964 
21982.2196775 
21066.4044052 
20150.5013455 
19234.5726013 
18318.6387156 
17402.7050103 
16486.7721998 
15570.8399884 
14654.9080157 
13738.9759291 
12823.0431562 
11907.1085015 
10991.1697195 
10075.2239895 
9159.27291216 
8243.34305737 
7327.55027707 
6412.26785529 
5498.49330706 
4588.43959777 
3685.72808188 
2791.81034469 
1890.41075482 
957.596579401 
481.253243249 
57790.6904202 
56828.5314519 
54945.1984363 
53110.9361487 
51284.6066473 
49456.9084874 
47627.1638132 
45796.1815865 
43964.6277673 
42132.8526543 
40301.005733 
38469.1408324 
36637.2738763 
34805.4081417 
32973.5435833 
31141.6796752 
29309.8160191 
27477.9522912 
25646.0879737 
23814.2218929 
21982.3515583 
20150.4728577 
18318.5828966 
16486.6955127 
14654.8960437 
12823.4981726 
10993.4229377 
9166.95798209 
7348.81858755 
5546.0423693 
3758.54465235 
1924.21666127 
980.821964771 
86553.0370678 
85176.2909238 
82429.8074416 
79686.8133918 
76939.4662554 
74191.2193311 
71443.0192436 
68695.0127416 
65947.127928 
63199.3008798 
60451.4963937 
57703.6993361 
54955.9041794 
52208.1092659 
49460.3142417 
46712.5191067 
43964.7239255 
41216.9287794 
38469.1338023 
35721.3392489 
32973.5455209 
30225.7528573 
27477.9597164 
24730.1571242 
21982.3128023 
19234.3325958 
16485.9893492 
13736.8290435 
10986.4139605 
8235.68542123 
5494.1750675 
2758.13423779 
1388.43184576 
100881.500361 
99333.0589818 
96185.8896575 
92981.2114065 
89769.4348974 
86559.1593651 
83351.1459094 
80144.4517479 
76938.3656343 
73732.5126551 
70526.7348356 
67320.9755373 
64115.2181935 
60909.459473 
57703.6994815 
54497.9387949 
51292.1778396 
48086.4169574 
44880.6566944 
41674.8982967 
38469.1444292 
35263.39956 
32057.6670983 
28851.9333157 
25646.1096894 
22439.8679433 
19232.2321062 
16020.7841708 
12800.3604276 
9563.52667592 
6306.59995578 
3105.8415168 
1538.49873488 
</DataArray>
<DataArray type="Float64" Name="Nodal_sigma_yy" NumberOfComponents="1" format="ascii" >
388.416765405 
195.539987967 
3.70944675398 
1.26586436054 
-1.67103253491 
-0.88115617193 
-0.454051452247 
-0.180492240014 
-0.0628529942805 
-0.0173233068954 
-0.00299930893834 
0.000466921473162 
0.000776037356445 
0.00048328626599 
0.000229129315812 
8.62216033966e-05 
-7.76220258558e-06 
-0.000155145307417 
-0.000526719369645 
-0.00142179169825 
-0.0032234951218 
-0.00580913894237 
-0.00597359896574 
0.0103514932985 
0.0904972021006 
0.355400677392 
1.12335525838 
2.82128893918 
7.4031227861 
9.98913367804 
38.8800382957 
-382.749761025 
-834.136471148 
355.858660318 
205.284876531 
30.9015751517 
2.40502502626 
-2.33836557423 
-1.88555790566 
-0.998611756321 
-0.428474073658 
-0.15556932495 
-0.0465344964477 
-0.00983654382753 
-4.53734310213e-05 
0.00143448867539 
0.00102784989235 
0.000517520134736 
0.000197041189949 
-3.36681994213e-05 
-0.000398820908003 
-0.00127672619669 
-0.00328171445244 
-0.00702658374075 
-0.0114172627076 
-0.00717330969167 
0.0425246894433 
0.250714287332 
0.908465580163 
2.65079979335 
6.56844601402 
13.9453258556 
21.8532041621 
6.39785583369 
-359.621370145 
-706.985945002 
265.956780576 
183.070522257 
58.5425369191 
7.70958229326 
-2.56231287295 
-2.98877406421 
-1.72392552601 
-0.777438582506 
-0.294480092654 
-0.0930566996838 
-0.0221399270888 
-0.00184266169424 
0.00199320560614 
0.00169348996405 
0.000904118737822 
0.000347952183347 
-8.4770386934e-05 
-0.000774639484348 
-0.00237048436543 
-0.00584717340735 
-0.0118649799703 
-0.0172201578837 
-0.00230189287589 
0.104735042661 
0.514360019329 
1.74660934726 
4.86351419831 
11.4448047511 
21.6078004174 
26.2122063318 
-38.1508098956 
-277.633892913 
-453.935108303 
139.739899412 
102.133037732 
41.1759252648 
8.97444322456 
-1.22027541685 
-2.19836612146 
-1.37225999826 
-0.642133196921 
-0.250589899951 
-0.0820278463929 
-0.0208513544194 
-0.0025717329986 
0.00128361767236 
0.00129706411877 
0.000726245905383 
0.000281797717292 
-8.41564729797e-05 
-0.000670451915823 
-0.00199079148297 
-0.00476734458331 
-0.00927656124131 
-0.012144740586 
0.00448370356074 
0.102975890135 
0.460448512326 
1.50107422618 
4.05054515168 
9.12278143796 
15.8384950318 
11.5204218571 
-36.2990034017 
-146.696389952 
-217.02056762 
4.34283720097e-11 
3.64366314898e-11 
2.38173925027e-11 
7.95807864051e-12 
3.01270119962e-12 
8.10018718767e-12 
1.25908172777e-11 
8.64019966684e-12 
-1.27897692437e-11 
-2.82796008833e-11 
-1.04876107798e-11 
-2.73701061815e-11 
-3.46744855051e-12 
8.96420715435e-11 
1.16358478408e-10 
1.12947873276e-10 
-6.71036559652e-11 
-2.7591795515e-10 
-1.82708959073e-10 
-4.27746726928e-12 
4.92264007335e-11 
1.16443743536e-10 
3.63314711649e-10 
5.85018256061e-10 
3.86620513382e-10 
2.03066008453e-10 
1.5288392774e-10 
-2.10253148225e-10 
-4.69693617333e-10 
-1.04284580971e-10 
1.38586031539e-10 
-4.69707828188e-10 
-9.47423473008e-10 
-139.739899412 
-102.133037732 
-41.1759252647 
-8.97444322454 
1.22027541684 
2.19836612147 
1.3722599983 
0.642133196964 
0.250589899982 
0.0820278464233 
0.0208513543992 
0.00257173294258 
-0.00128361766502 
-0.00129706399832 
-0.00072624572843 
-0.000281797604686 
8.41563746121e-05 
0.000670451661392 
0.00199079129287 
0.00476734444398 
0.0092765612155 
0.0121447407517 
-0.00448370314479 
-0.102975889621 
-0.460448511958 
-1.50107422588 
-4.05054515175 
-9.12278143875 
-15.8384950332 
-11.5204218583 
36.2990034012 
146.696389952 
217.02056762 
-265.956780576 
-183.070522257 
-58.542536919 
-7.70958229323 
2.56231287294 
2.98877406418 
1.72392552599 
0.777438582535 
0.294480092715 
0.0930566997108 
0.0221399269986 
0.00184266158533 
-0.00199320568856 
-0.00169349015084 
-0.000904118976905 
-0.000347952378092 
8.47702062856e-05 
0.000774639368728 
0.00237048429119 
0.00584717321021 
0.0118649798872 
0.0172201581548 
0.00230189309644 
-0.104735042788 
-0.514360019175 
-1.74660934694 
-4.86351419874 
-11.4448047522 
-21.6078004188 
-26.2122063328 
38.1508098951 
277.633892912 
453.935108302 
-355.858660318 
-205.284876531 
-30.9015751517 
-2.40502502624 
2.33836557425 
1.88555790564 
0.998611756249 
0.428474073579 
0.15556932487 
0.0465344964557 
0.00983654391985 
4.53733734957e-05 
-0.0014344888632 
-0.00102785011131 
-0.000517520409403 
-0.000197041481897 
3.36680930104e-05 
0.000398820807277 
0.00127672576264 
0.00328171413571 
0.00702658378725 
0.0114172628713 
0.0071733097268 
-0.042524689421 
-0.250714287058 
-0.908465579657 
-2.65079979289 
-6.56844601397 
-13.9453258552 
-21.8532041611 
-6.39785583334 
359.621370145 
706.985945002 
-388.416765405 
-195.539987967 
-3.70944675398 
-1.26586436053 
1.67103253493 
0.881156171953 
0.454051452202 
0.180492239866 
0.0628529940868 
0.0173233069745 
0.00299930928395 
-0.000466921427687 
-0.00077603754562 
-0.000483286268718 
-0.00022912926579 
-8.62217984832e-05 
7.76228853283e-06 
0.000155145380177 
0.000526718635228 
0.00142179118893 
0.00322349523094 
0.00580913882595 
0.00597359870017 
-0.0103514931429 
-0.0904972018964 
-0.35540067683 
-1.12335525705 
-2.8212889379 
-7.40312278435 
-9.9891336763 
-38.8800382952 
382.749761026 
834.13647115 
</DataArray>
<DataArray type="Float64" Name="Nodal_sigma_xy" NumberOfComponents="1" format="ascii" >
-1502.74097198 
-1604.46143174 
-1715.27496549 
-1723.56482992 
-1721.14209344 
-1718.54189081 
-1717.09850688 
-1716.45234914 
-1716.2075163 
-1716.12990032 
-1716.11129871 
-1716.10966689 
-1716.11128053 
-1716.11267105 
-1716.11342173 
-1716.11374693 
-1716.1138312 
-1716.11367805 
-1716.11300542 
-1716.11102984 
-1716.1061879 
-1716.09640468 
-1716.08233455 
-1716.08104162 
-1716.16932996 
-1716.59845321 
-1718.05203794 
-1722.12750465 
-1732.12656525 
-1753.16557007 
-1788.36090419 
-1672.61732571 
-1535.68745829 
-2969.48950994 
-3016.36747994 
-3078.01500384 
-3094.0976705 
-3094.42085518 
-3092.52728201 
-3091.13471642 
-3090.43351298 
-3090.14350842 
-3090.04227956 
-3090.01367502 
-3090.00846355 
-3090.00902838 
-3090.01020767 
-3090.01096257 
-3090.01131428 
-3090.01139349 
-3090.01117533 
-3090.01033973 
-3090.00808404 
-3090.00302845 
-3089.99411851 
-3089.98564831 
-3090.00516722 
-3090.15505895 
-3090.73802244 
-3092.5083216 
-3097.03299052 
-3106.6423502 
-3122.09114709 
-3124.64331219 
-3050.21128791 
-2982.27649171 
-5412.88779901 
-5387.96987199 
-5368.99852171 
-5377.54895006 
-5380.48457103 
-5380.64327017 
-5380.30389041 
-5380.04731071 
-5379.91802828 
-5379.86482083 
-5379.84636839 
-5379.84120595 
-5379.840293 
-5379.84041464 
-5379.84063539 
-5379.84076339 
-5379.84078091 
-5379.84065175 
-5379.84024517 
-5379.83931145 
-5379.8376431 
-5379.83598382 
-5379.83929473 
-5379.86622503 
-5379.97233246 
-5380.29679745 
-5381.12600432 
-5382.84750372 
-5385.13806037 
-5383.03533771 
-5360.62137898 
-5373.16517765 
-5404.86329713 
-6874.26049006 
-6827.38252006 
-6765.73499616 
-6749.6523295 
-6749.32914482 
-6751.22271798 
-6752.61528358 
-6753.31648702 
-6753.60649158 
-6753.70772043 
-6753.73632498 
-6753.74153645 
-6753.74097162 
-6753.73979233 
-6753.73903743 
-6753.73868572 
-6753.7386065 
-6753.73882467 
-6753.73966027 
-6753.74191596 
-6753.74697155 
-6753.75588149 
-6753.76435169 
-6753.74483278 
-6753.59494105 
-6753.01197756 
-6751.24167839 
-6746.71700948 
-6737.1076498 
-6721.65885291 
-6719.10668781 
-6793.53871209 
-6861.47350829 
-7358.98343001 
-7307.09882428 
-7234.22799109 
-7208.83726995 
-7205.38876449 
-7207.67156884 
-7209.79371229 
-7210.95302944 
-7211.45642713 
-7211.64045801 
-7211.69596451 
-7211.7079212 
-7211.70813346 
-7211.70649966 
-7211.70530748 
-7211.70472628 
-7211.70460696 
-7211.70501845 
-7211.70650423 
-7211.71034726 
-7211.7185259 
-7211.73162768 
-7211.73907599 
-7211.68650832 
-7211.38600512 
-7210.30795188 
-7207.19595343 
-7199.67748791 
-7185.09731401 
-7168.26375451 
-7177.89633786 
-7268.55231899 
-7342.08594745 
-6874.26049006 
-6827.38252006 
-6765.73499616 
-6749.6523295 
-6749.32914482 
-6751.22271798 
-6752.61528358 
-6753.31648702 
-6753.60649158 
-6753.70772043 
-6753.73632498 
-6753.74153645 
-6753.74097162 
-6753.73979233 
-6753.73903743 
-6753.73868572 
-6753.7386065 
-6753.73882467 
-6753.73966027 
-6753.74191596 
-6753.74697155 
-6753.75588149 
-6753.76435169 
-6753.74483278 
-6753.59494105 
-6753.01197756 
-6751.24167839 
-6746.71700948 
-6737.1076498 
-6721.65885291 
-6719.10668781 
-6793.53871209 
-6861.47350829 
-5412.88779901 
-5387.96987199 
-5368.99852171 
-5377.54895006 
-5380.48457103 
-5380.64327017 
-5380.30389041 
-5380.04731071 
-5379.91802828 
-5379.86482083 
-5379.84636839 
-5379.84120595 
-5379.840293 
-5379.84041464 
-5379.84063539 
-5379.84076339 
-5379.84078091 
-5379.84065175 
-5379.84024517 
-5379.83931145 
-5379.8376431 
-5379.83598382 
-5379.83929473 
-5379.86622503 
-5379.97233246 
-5380.29679745 
-5381.12600432 
-5382.84750372 
-5385.13806037 
-5383.03533771 
-5360.62137898 
-5373.16517765 
-5404.86329713 
-2969.48950994 
-3016.36747994 
-3078.01500384 
-3094.0976705 
-3094.42085518 
-3092.52728201 
-3091.13471642 
-3090.43351298 
-3090.14350842 
-3090.04227956 
-3090.01367502 
-3090.00846355 
-3090.00902838 
-3090.01020767 
-3090.01096257 
-3090.01131428 
-3090.0113935 
-3090.01117533 
-3090.01033973 
-3090.00808404 
-3090.00302845 
-3089.99411851 
-3089.98564831 
-3090.00516722 
-3090.15505895 
-3090.73802244 
-3092.5083216 
-3097.03299052 
-3106.6423502 
-3122.09114709 
-3124.64331219 
-3050.21128791 
-2982.27649171 
-1502.74097198 
-1604.46143174 
-1715.27496549 
-1723.56482992 
-1721.14209344 
-1718.54189081 
-1717.09850688 
-1716.45234914 
-1716.2075163 
-1716.12990032 
-1716.11129871 
-1716.10966689 
-1716.11128053 
-1716.11267105 
-1716.11342173 
-1716.11374693 
-1716.1138312 
-1716.11367805 
-1716.11300542 
-1716.11102984 
-1716.1061879 
-1716.09640468 
-1716.08233455 
-1716.08104162 
-1716.16932996 
-1716.59845321 
-1718.05203794 
-1722.12750465 
-1732.12656525 
-1753.16557007 
-1788.36090419 
-1672.61732571 
-1535.68745829 
</DataArray>
</PointData>
<CellData>
</CellData>
<Points>
<DataArray type="Float64" Name="Points" NumberOfComponents="3" format="ascii">
0.0 -2.0 0.0
0.5 -2.0 0.0
1.0 -2.0 0.0
1.5 -2.0 0.0
2.0 -2.0 0.0
2.5 -2.0 0.0
3.0 -2.0 0.0
3.5 -2.0 0.0
4.0 -2.0 0.0
4.5 -2.0 0.0
5.0 -2.0 0.0
5.5 -2.0 0.0
6.0 -2.0 0.0
6.5 -2.0 0.0
7.0 -2.0 0.0
7.5 -2.0 0.0
8.0 -2.0 0.0
8.5 -2.0 0.0
9.0 -2.0 0.0
9.5 -2.0 0.0
10.0 -2.0 0.0
10.5 -2.0 0.0
11.0 -2.0 0.0
11.5 -2.0 0.0
12.0 -2.0 0.0
12.5 -2.0 0.0
13.0 -2.0 0.0
13.5 -2.0 0.0
14.0 -2.0 0.0
14.5 -2.0 0.0
15.0 -2.0 0.0
15.5 -2.0 0.0
16.0 -2.0 0.0
0.0 -1.5 0.0
0.5 -1.5 0.0
1.0 -1.5 0.0
1.5 -1.5 0.0
2.0 -1.5 0.0
2.5 -1.5 0.0
3.0 -1.5 0.0
3.5 -1.5 0.0
4.0 -1.5 0.0
4.5 -1.5 0.0
5.0 -1.5 0.0
5.5 -1.5 0.0
6.0 -1.5 0.0
6.5 -1.5 0.0
7.0 -1.5 0.0
7.5 -1.5 0.0
8.0 -1.5 0.0
8.5 -1.5 0.0
9.0 -1.5 0.0
9.5 -1.5 0.0
10.0 -1.5 0.0
10.5 -1.5 0.0
11.0 -1.5 0.0
11.5 -1.5 0.0
12.0 -1.5 0.0
12.5 -1.5 0.0
13.0 -1.5 0.0
13.5 -1.5 0.0
14.0 -1.5 0.0
14.5 -1.5 0.0
15.0 -1.5 0.0
15.5 -1.5 0.0
16.0 -1.5 0.0
0.0 -1.0 0.0
0.5 -1.0 0.0
1.0 -1.0 0.0
1.5 -1.0 0.0
2.0 -1.0 0.0
2.5 -1.0 0.0
3.0 -1.0 0.0
3.5 -1.0 0.0
4.0 -1.0 0.0
4.5 -1.0 0.0
5.0 -1.0 0.0
5.5 -1.0 0.0
6.0 -1.0 0.0
6.5 -1.0 0.0
7.0 -1.0 0.0
7.5 -1.0 0.0
8.0 -1.0 0.0
8.5 -1.0 0.0
9.0 -1.0 0.0
9.5 -1.0 0.0
10.0 -1.0 0.0
10.5 -1.0 0.0
11.0 -1.0 0.0
11.5 -1.0 0.0
12.0 -1.0 0.0
12.5 -1.0 0.0
13.0 -1.0 0.0
13.5 -1.0 0.0
14.0 -1.0 0.0
14.5 -1.0 0.0
15.0 -1.0 0.0
15.5 -1.0 0.0
16.0 -1.0 0.0
0.0 -0.5 0.0
0.5 -0.5 0.0
1.0 -0.5 0.0
1.5 -0.5 0.0
2.0 -0.5 0.0
2.5 -0.5 0.0
3.0 -0.5 0.0
3.5 -0.5 0.0
4.0 -0.5 0.0
4.5 -0.5 0.0
5.0 -0.5 0.0
5.5 -0.5 0.0
6.0 -0.5 0.0
6.5 -0.5 0.0
7.0 -0.5 0.0
7.5 -0.5 0.0
8.0 -0.5 0.0
8.5 -0.5 0.0
9.0 -0.5 0.0
9.5 -0.5 0.0
10.0 -0.5 0.0
10.5 -0.5 0.0
11.0 -0.5 0.0
11.5 -0.5 0.0
12.0 -0.5 0.0
12.5 -0.5 0.0
13.0 -0.5 0.0
13.5 -0.5 0.0
14.0 -0.5 0.0
14.5 -0.5 0.0
15.0 -0.5 0.0
15.5 -0.5 0.0
16.0 -0.5 0.0
0.0 0.0 0.0
0.5 0.0 0.0
1.0 0.0 0.0
1.5 0.0 0.0
2.0 0.0 0.0
2.5 0.0 0.0
3.0 0.0 0.0
3.5 0.0 0.0
4.0 0.0 0.0
4.5 0.0 0.0
5.0 0.0 0.0
5.5 0.0 0.0
6.0 0.0 0.0
6.5 0.0 0.0
7.0 0.0 0.0
7.5 0.0 0.0
8.0 0.0 0.0
8.5 0.0 0.0
9.0 0.0 0.0
9.5 0.0 0.0
10.0 0.0 0.0
10.5 0.0 0.0
11.0 0.0 0.0
11.5 0.0 0.0
12.0 0.0 0.0
12.5 0.0 0.0
13.0 0.0 0.0
13.5 0.0 0.0
14.0 0.0 0.0
14.5 0.0 0.0
15.0 0.0 0.0
15.5 0.0 0.0
16.0 0.0 0.0
0.0 0.5 0.0
0.5 0.5 0.0
1.0 0.5 0.0
1.5 0.5 0.0
2.0 0.5 0.0
2.5 0.5 0.0
3.0 0.5 0.0
3.5 0.5 0.0
4.0 0.5 0.0
4.5 0.5 0.0
5.0 0.5 0.0
5.5 0.5 0.0
6.0 0.5 0.0
6.5 0.5 0.0
7.0 0.5 0.0
7.5 0.5 0.0
8.0 0.5 0.0
8.5 0.5 0.0
9.0 0.5 0.0
9.5 0.5 0.0
10.0 0.5 0.0
10.5 0.5 0.0
11.0 0.5 0.0
11.5 0.5 0.0
12.0 0.5 0.0
12.5 0.5 0.0
13.0 0.5 0.0
13.5 0.5 0.0
14.0 0.5 0.0
14.5 0.5 0.0
15.0 0.5 0.0
15.5 0.5 0.0
16.0 0.5 0.0
0.0 1.0 0.0
0.5 1.0 0.0
1.0 1.0 0.0
1.5 1.0 0.0
2.0 1.0 0.0
2.5 1.0 0.0
3.0 1.0 0.0
3.5 1.0 0.0
4.0 1.0 0.0
4.5 1.0 0.0
5.0 1.0 0.0
5.5 1.0 0.0
6.0 1.0 0.0
6.5 1.0 0.0
7.0 1.0 0.0
7.5 1.0 0.0
8.0 1.0 0.0
8.5 1.0 0.0
9.0 1.0 0.0
9.5 1.0 0.0
10.0 1.0 0.0
10.5 1.0 0.0
11.0 1.0 0.0
11.5 1.0 0.0
12.0 1.0 0.0
12.5 1.0 0.0
13.0 1.0 0.0
13.5 1.0 0.0
14.0 1.0 0.0
14.5 1.0 0.0
15.0 1.0 0.0
15.5 1.0 0.0
16.0 1.0 0.0
0.0 1.5 0.0
0.5 1.5 0.0
1.0 1.5 0.0
1.5 1.5 0.0
2.0 1.5 0.0
2.5 1.5 0.0
3.0 1.5 0.0
3.5 1.5 0.0
4.0 1.5 0.0
4.5 1.5 0.0
5.0 1.5 0.0
5.5 1.5 0.0
6.0 1.5 0.0
6.5 1.5 0.0
7.0 1.5 0.0
7.5 1.5 0.0
8.0 1.5 0.0
8.5 1.5 0.0
9.0 1.5 0.0
9.5 1.5 0.0
10.0 1.5 0.0
10.5 1.5 0.0
11.0 1.5 0.0
11.5 1.5 0.0
12.0 1.5 0.0
12.5 1.5 0.0
13.0 1.5 0.0
13.5 1.5 0.0
14.0 1.5 0.0
14.5 1.5 0.0
15.0 1.5 0.0
15.5 1.5 0.0
16.0 1.5 0.0
0.0 2.0 0.0
0.5 2.0 0.0
1.0 2.0 0.0
1.5 2.0 0.0
2.0 2.0 0.0
2.5 2.0 0.0
3.0 2.0 0.0
3.5 2.0 0.0
4.0 2.0 0.0
4.5 2.0 0.0
5.0 2.0 0.0
5.5 2.0 0.0
6.0 2.0 0.0
6.5 2.0 0.0
7.0 2.0 0.0
7.5 2.0 0.0
8.0 2.0 0.0
8.5 2.0 0.0
9.0 2.0 0.0
9.5 2.0 0.0
10.0 2.0 0.0
10.5 2.0 0.0
11.0 2.0 0.0
11.5 2.0 0.0
12.0 2.0 0.0
12.5 2.0 0.0
13.0 2.0 0.0
13.5 2.0 0.0
14.0 2.0 0.0
14.5 2.0 0.0
15.0 2.0 0.0
15.5 2.0 0.0
16.0 2.0 0.0
</DataArray>
</Points>
<Cells>
<DataArray type="Int64" Name="connectivity" format="ascii">
0 1 34 33 
1 2 35 34 
2 3 36 35 
3 4 37 36 
4 5 38 37 
5 6 39 38 
6 7 40 39 
7 8 41 40 
8 9 42 41 
9 10 43 42 
10 11 44 43 
11 12 45 44 
12 13 46 45 
13 14 47 46 
14 15 48 47 
15 16 49 48 
16 17 50 49 
17 18 51 50 
18 19 52 51 
19 20 53 52 
20 21 54 53 
21 22 55 54 
22 23 56 55 
23 24 57 56 
24 25 58 57 
25 26 59 58 
26 27 60 59 
27 28 61 60 
28 29 62 61 
29 30 63 62 
30 31 64 63 
31 32 65 64 
33 34 67 66 
34 35 68 67 
35 36 69 68 
36 37 70 69 
37 38 71 70 
38 39 72 71 
39 40 73 72 
40 41 74 73 
41 42 75 74 
42 43 76 75 