<?xml version="1.0"?>
<VTKFile type="UnstructuredGrid" version="0.1" byte_order="LittleEndian" compressor="vtkZLibDataCompressor">
<UnstructuredGrid>
<Piece NumberOfPoints="297" NumberOfCells="256">
<PointData>
<DataArray type="Float64" Name="displacement" NumberOfComponents="3" format="ascii" >
0.0 -0.018  0.
-0.0288092992739 -0.0242115100264  0.
-0.0567588038443 -0.0377130619731  0.
-0.08379125939 -0.0581094503409  0.
-0.109901294958 -0.085158582131  0.
-0.135091903185 -0.118621733459  0.
-0.159364962034 -0.158267930101  0.
-0.182721471468 -0.20386759741  0.
-0.205161846945 -0.255191715337  0.
-0.22668623973 -0.312011346853  0.
-0.247294694617 -0.374097550106  0.
-0.266987221001 -0.441221363945  0.
-0.28576381885 -0.513153814864  0.
-0.303624486744 -0.589665923351  0.
-0.320569223677 -0.670528707492  0.
-0.336598029145 -0.75551318456  0.
-0.351710902938 -0.84439037159  0.
-0.365907844995 -0.936931285543  0.
-0.379188855402 -1.0329069433  0.
-0.391553934558 -1.13208836168  0.
-0.403003083709 -1.23424655756  0.
-0.413536306052 -1.33915254898  0.
-0.423153608459 -1.44657735851  0.
-0.431855002199 -1.55629202328  0.
-0.439640494687 -1.66806761838  0.
-0.446510046038 -1.78167530406  0.
-0.452463414395 -1.89688638182  0.
-0.457499725981 -2.01347231042  0.
-0.461616351991 -2.13120407172  0.
-0.464806710539 -2.24985104315  0.
-0.467054088542 -2.36916663661  0.
-0.468332555392 -2.48889437546  0.
-0.468653198584 -2.608299156  0.
0.00188671875 -0.010125  0.
-0.0198029946716 -0.0167600765895  0.
-0.0407461983839 -0.0304954711644  0.
-0.061008037047 -0.0511365890512  0.
-0.0805852984358 -0.0784262662329  0.
-0.0994763268399 -0.112130067109  0.
-0.117680526379 -0.152016712047  0.
-0.135197768251 -0.197856810147  0.
-0.152028039067 -0.249421352885  0.
-0.168171346767 -0.306481412183  0.
-0.183627698854 -0.368808045424  0.
-0.198397099432 -0.436172290527  0.
-0.212479550298 -0.508345173255  0.
-0.225875052116 -0.585097713754  0.
-0.238583605089 -0.66620092997  0.
-0.250605209264 -0.751425839127  0.
-0.261939864649 -0.840543458252  0.
-0.272587571251 -0.933324804307  0.
-0.282548329096 -1.02954089418  0.
-0.291822138225 -1.12896274468  0.
-0.300408998659 -1.23136137262  0.
-0.308308910194 -1.33650779576  0.
-0.315521871725 -1.44417303583  0.
-0.322047879352 -1.5541281277  0.
-0.327886921919 -1.66614414187  0.
-0.333038972352 -1.77999222925  0.
-0.337503976775 -1.89544369216  0.
-0.341281861522 -2.01226997156  0.
-0.344372669736 -2.13024238256  0.
-0.346777458328 -2.24912924908  0.
-0.348501456601 -2.36869286678  0.
-0.349569877442 -2.48863284917  0.
-0.349893363147 -2.60874697571  0.
0.00215625 -0.0045  0.
-0.0123148185487 -0.0113897402457  0.
-0.0262948646614 -0.025340257227  0.
-0.0398009295101 -0.0461571419984  0.
-0.0528492432423 -0.0736191054771  0.
-0.0654412356211 -0.107493992088  0.
-0.0775764276086 -0.147551929015  0.
-0.089254223836 -0.19356352663  0.
-0.100474285719 -0.245299707285  0.
-0.111236461056 -0.302531468118  0.
-0.121540692313 -0.365029828169  0.
-0.131386961341 -0.432565808392  0.
-0.140775263837 -0.504910428398  0.
-0.14970559945 -0.581834706461  0.
-0.158177968576 -0.663109660123  0.
-0.166192371545 -0.748506306607  0.
-0.173748808527 -0.837795663006  0.
-0.180847279552 -0.930748746375  0.
-0.187487784488 -1.02713657375  0.
-0.19367032288 -1.12673016222  0.
-0.199394893584 -1.22930052905  0.
-0.204661494275 -1.33461869221  0.
-0.209470121564 -1.44245567168  0.
-0.213820774939 -1.55258249222  0.
-0.217713474713 -1.66477018799  0.
-0.221148321134 -1.77878980677  0.
-0.224125655564 -1.89441239029  0.
-0.226646432029 -2.01140889556  0.
-0.2287129312 -2.12954965866  0.
-0.230329448975 -2.24860354511  0.
-0.231502103684 -2.36833092809  0.
-0.232210954742 -2.48850398978  0.
-0.232419676203 -2.60897999807  0.
0.00134765625 -0.001125  0.
-0.00589097068529 -0.00815691268283  0.
-0.0128841025104 -0.022238539062  0.
-0.0196392287818 -0.0431694130271  0.
-0.0261627433435 -0.0707355695298  0.
-0.0324580026739 -0.104712997176  0.
-0.0385251703785 -0.14487338107  0.
-0.0443638781039 -0.190987691596  0.
-0.0499738381799 -0.242826766889  0.
-0.0553549039943 -0.300161515025  0.
-0.0605070146797 -0.362762900256  0.
-0.0654301489421 -0.430401918861  0.
-0.0701243007475 -0.502849580941  0.
-0.0745894689882 -0.579876901736  0.
-0.0788256537773 -0.661254898048  0.
-0.0828328553584 -0.746754587031  0.
-0.0866110738748 -0.836146985866  0.
-0.0901603093455 -0.929203111734  0.
-0.0934805616219 -1.02569398189  0.
-0.0965718302403 -1.12539061379  0.
-0.0994341141454 -1.22806402524  0.
-0.102067411479 -1.3334852342  0.
-0.104471720501 -1.44142525706  0.
-0.106647045405 -1.55165510167  0.
-0.108593417877 -1.66394574592  0.
-0.110310960719 -1.77806808083  0.
-0.111800045629 -1.89379279283  0.
-0.113061613742 -2.01089013786  0.
-0.114097584243 -2.12912988491  0.
-0.114910584899 -2.24828157134  0.
-0.115498264472 -2.36812067007  0.
-0.115849353069 -2.48844609515  0.
-0.115953065876 -2.60909341825  0.
0.0 0.0  0.
8.06055591537e-17 -0.00707808021147  0.
1.67714193694e-16 -0.0212033055122  0.
2.5942656611e-16 -0.0421729771321  0.
3.50504695973e-16 -0.0697745553638  0.
4.43748875681e-16 -0.103786121913  0.
5.36934386294e-16 -0.143980608972  0.
6.32227081526e-16 -0.19012911268  0.
7.24452662574e-16 -0.242002465796  0.
8.21428748658e-16 -0.299371534419  0.
9.14730774239e-16 -0.362007258468  0.
1.00689787913e-15 -0.429680622388  0.
1.09617339454e-15 -0.50216263169  0.
1.18537146905e-15 -0.579224300085  0.
1.28364101574e-15 -0.660636643983  0.
1.36748691611e-15 -0.74617068049  0.
1.43989586518e-15 -0.835597426822  0.
1.54249344576e-15 -0.928687900219  0.
1.63243605991e-15 -1.02521311803  0.
1.68542889435e-15 -1.1249440979  0.
1.74747031693e-15 -1.22765185783  0.
1.86129044406e-15 -1.33310741568  0.
1.97769141467e-15 -1.44108178586  0.
2.0468432971e-15 -1.55134596769  0.
2.10234556548e-15 -1.6636709111  0.
2.14462008024e-15 -1.77782743402  0.
2.17363555079e-15 -1.89358604981  0.
2.29273405747e-15 -2.01071675219  0.
2.32452844161e-15 -2.12898897656  0.
2.34017912527e-15 -2.24817393884  0.
2.35787349706e-15 -2.36805269567  0.
2.42095240902e-15 -2.48842841243  0.
2.48021891889e-15 -2.60912822001  0.
-0.00134765625 -0.001125  0.
0.00589097068529 -0.00815691268283  0.
0.0128841025104 -0.022238539062  0.
0.0196392287818 -0.0431694130271  0.
0.0261627433435 -0.0707355695298  0.
0.0324580026739 -0.104712997176  0.
0.0385251703785 -0.14487338107  0.
0.0443638781039 -0.190987691596  0.
0.0499738381799 -0.242826766889  0.
0.0553549039943 -0.300161515025  0.
0.0605070146797 -0.362762900256  0.
0.0654301489421 -0.430401918861  0.
0.0701243007475 -0.502849580941  0.
0.0745894689882 -0.579876901736  0.
0.0788256537773 -0.661254898048  0.
0.0828328553584 -0.746754587031  0.
0.0866110738748 -0.836146985866  0.
0.0901603093455 -0.929203111734  0.
0.0934805616219 -1.02569398189  0.
0.0965718302403 -1.12539061379  0.
0.0994341141454 -1.22806402524  0.
0.102067411479 -1.3334852342  0.
0.104471720501 -1.44142525706  0.
0.106647045405 -1.55165510167  0.
0.108593417877 -1.66394574592  0.
0.110310960719 -1.77806808083  0.
0.111800045629 -1.89379279283  0.
0.113061613742 -2.01089013786  0.
0.114097584243 -2.12912988491  0.
0.114910584899 -2.24828157134  0.
0.115498264472 -2.36812067007  0.
0.115849353069 -2.48844609515  0.
0.115953065876 -2.60909341825  0.
-0.00215625 -0.0045  0.
0.0123148185487 -0.0113897402457  0.
0.0262948646614 -0.025340257227  0.
0.0398009295101 -0.0461571419984  0.
0.0528492432423 -0.0736191054771  0.
0.0654412356211 -0.107493992088  0.
0.0775764276086 -0.147551929015  0.
0.089254223836 -0.19356352663  0.
0.100474285719 -0.245299707285  0.
0.111236461056 -0.302531468118  0.
0.121540692313 -0.365029828169  0.
0.131386961341 -0.432565808392  0.
0.140775263837 -0.504910428398  0.
0.14970559945 -0.581834706461  0.
0.158177968576 -0.663109660123  0.
0.166192371545 -0.748506306607  0.
0.173748808527 -0.837795663006  0.
0.180847279552 -0.930748746375  0.
0.187487784488 -1.02713657375  0.
0.19367032288 -1.12673016222  0.
0.199394893584 -1.22930052905  0.
0.204661494275 -1.33461869221  0.
0.209470121564 -1.44245567168  0.
0.213820774939 -1.55258249222  0.
0.217713474713 -1.66477018799  0.
0.221148321134 -1.77878980677  0.
0.224125655564 -1.89441239029  0.
0.226646432029 -2.01140889556  0.
0.2287129312 -2.12954965866  0.
0.230329448975 -2.24860354511  0.
0.231502103684 -2.36833092809  0.
0.232210954742 -2.48850398978  0.
0.232419676203 -2.60897999807  0.
-0.00188671875 -0.010125  0.
0.0198029946716 -0.0167600765895  0.
0.0407461983839 -0.0304954711644  0.
0.061008037047 -0.0511365890512  0.
0.0805852984358 -0.0784262662329  0.
0.0994763268399 -0.112130067109  0.
0.117680526379 -0.152016712047  0.
0.135197768251 -0.197856810147  0.
0.152028039067 -0.249421352885  0.
0.168171346767 -0.306481412183  0.
0.183627698854 -0.368808045424  0.
0.198397099432 -0.436172290527  0.
0.212479550298 -0.508345173255  0.
0.225875052116 -0.585097713754  0.
0.238583605089 -0.66620092997  0.
0.250605209264 -0.751425839127  0.
0.261939864649 -0.840543458252  0.
0.272587571251 -0.933324804307  0.
0.282548329096 -1.02954089418  0.
0.291822138225 -1.12896274468  0.
0.300408998659 -1.23136137262  0.
0.308308910194 -1.33650779576  0.
0.315521871725 -1.44417303583  0.
0.322047879352 -1.5541281277  0.
0.327886921919 -1.66614414187  0.
0.333038972352 -1.77999222925  0.
0.337503976775 -1.89544369216  0.
0.341281861522 -2.01226997156  0.
0.344372669736 -2.13024238256  0.
0.346777458328 -2.24912924908  0.
0.348501456601 -2.36869286678  0.
0.349569877442 -2.48863284917  0.
0.349893363147 -2.60874697571  0.
0.0 -0.018  0.
0.0288092992739 -0.0242115100264  0.
0.0567588038443 -0.0377130619731  0.
0.08379125939 -0.0581094503409  0.
0.109901294958 -0.085158582131  0.
0.135091903185 -0.118621733459  0.
0.159364962034 -0.158267930101  0.
0.182721471468 -0.20386759741  0.
0.205161846945 -0.255191715337  0.
0.22668623973 -0.312011346853  0.
0.247294694617 -0.374097550106  0.
0.266987221001 -0.441221363945  0.
0.28576381885 -0.513153814864  0.
0.303624486744 -0.589665923351  0.
0.320569223677 -0.670528707492  0.
0.336598029145 -0.75551318456  0.
0.351710902938 -0.84439037159  0.
0.365907844995 -0.936931285543  0.
0.379188855402 -1.0329069433  0.
0.391553934558 -1.13208836168  0.
0.403003083709 -1.23424655756  0.
0.413536306052 -1.33915254898  0.
0.423153608459 -1.44657735851  0.
0.431855002199 -1.55629202328  0.
0.439640494687 -1.66806761838  0.
0.446510046038 -1.78167530406  0.
0.452463414395 -1.89688638182  0.
0.457499725981 -2.01347231042  0.
0.461616351991 -2.13120407172  0.
0.464806710539 -2.24985104315  0.
0.467054088542 -2.36916663661  0.
0.468332555392 -2.48889437546  0.
0.468653198584 -2.608299156  0.
</DataArray>
<DataArray type="Float64" Name="Nodal_sigma_xx" NumberOfComponents="1" format="ascii" >
-50440.7501807 
-49666.5294909 
-48092.9448287 
-46490.6057032 
-44884.7174487 
-43279.5796826 
-41675.5729547 
-40072.2258739 
-38469.1828172 
-36866.2563276 
-35263.3674178 
-33660.4877686 
-32057.6090967 
-30454.7297365 
-28851.8497407 
-27248.9693974 
-25646.0889198 
-24043.2084787 
-22440.3283472 
-20837.4491484 
-19234.5722146 
-17631.69978 
-16028.8335492 
-14425.9666578 
-12823.0548447 
-11219.9339716 
-9616.11605312 
-8010.3920854 
-6400.18021382 
-4781.76333796 
-3153.29997789 
-1552.9207584 
-769.24936744 
-43276.5185339 
-42588.1454619 
-41214.9037208 
-39843.4066959 
-38469.7331277 
-37095.6096655 
-35721.5096218 
-34347.5063708 
-32973.563964 
-31599.6504399 
-30225.7481968 
-28851.849668 
-27477.9520897 
-26104.0546329 
-24730.1571209 
-23356.2595534 
-21982.3619628 
-20608.4643897 
-19234.5669011 
-17860.6696244 
-16486.7727604 
-15112.8764286 
-13738.9798582 
-12365.0785621 
-10991.1564011 
-9617.1662979 
-8242.9946746 
-6868.41452173 
-5493.20698027 
-4117.84271061 
-2747.08753375 
-1379.0671189 
-694.21592288 
-28895.3452101 
-28414.265726 
-27472.5992181 
-26555.4680743 
-25642.3033236 
-24728.4542437 
-23813.5819066 
-22898.0907933 
-21982.3138836 
-21066.4263272 
-20150.5028665 
-19234.5704162 
-18318.6369381 
-17402.7040709 
-16486.7717916 
-15570.8398376 
-14654.9080095 
-13738.9761456 
-12823.0439869 
-11907.1109465 
-10991.1757791 
-10075.2364289 
-9159.29144831 
-8243.34775633 
-7327.44802183 
-6411.7490863 
-5496.71146886 
-4583.47899105 
-3674.40929377 
-2773.02118465 
-1879.27232617 
-962.108330634 
-490.410982385 
-14453.2002247 
-14213.3380899 
-13739.4803998 
-13276.5688953 
-12819.6465151 
-12363.339364 
-11906.3906078 
-11448.8947482 
-10991.1098387 
-10533.2022026 
-10075.2506728 
-9617.28630063 
-9159.3193578 
-8701.35250516 
-8243.38609992 
-7785.41999418 
-7327.45400783 
-6869.48796456 
-6411.5215781 
-5953.55425074 
-5495.58485976 
-5037.61199477 
-4579.63645608 
-4121.67152869 
-3663.77513854 
-3206.13392765 
-2749.24665353 
-2294.21979888 
-1842.86404094 
-1395.90517234 
-945.205377409 
-478.7982897 
-240.626621624 
1.73713488039e-10 
1.77351466846e-10 
1.8462742446e-10 
1.88947524293e-10 
1.8712853489e-10 
1.8462742446e-10 
1.88947524293e-10 
1.95541360881e-10 
1.91221261048e-10 
1.81671566679e-10 
1.84854798135e-10 
2.00998329092e-10 
2.00770955416e-10 
1.79397829925e-10 
1.51885615196e-10 
1.58365764946e-10 
1.72690306499e-10 
1.60753188538e-10 
1.67347025126e-10 
1.66551217262e-10 
1.69052327692e-10 
1.87355908565e-10 
1.62458491104e-10 
1.40801148518e-10 
1.54557255883e-10 
8.87894202606e-11 
4.88284968014e-11 
3.61524143955e-11 
3.57829321729e-11 
1.09452003016e-10 
1.75589320861e-10 
2.35047536989e-10 
2.59262833424e-10 
14453.2002247 
14213.3380899 
13739.4803998 
13276.5688953 
12819.6465151 
12363.339364 
11906.3906078 
11448.8947482 
10991.1098387 
10533.2022026 
10075.2506728 
9617.28630063 
9159.3193578 
8701.35250516 
8243.38609992 
7785.41999418 
7327.45400783 
6869.48796456 
6411.5215781 
5953.55425074 
5495.58485976 
5037.61199477 
4579.63645608 
4121.67152869 
3663.77513854 
3206.13392765 
2749.24665353 
2294.21979888 
1842.86404094 
1395.90517234 
945.205377409 
478.798289701 
240.626621625 
28895.3452101 
28414.265726 
27472.5992181 
26555.4680743 
25642.3033236 
24728.4542437 
23813.5819066 
22898.0907933 
21982.3138836 
21066.4263272 
20150.5028665 
19234.5704162 
18318.6369381 
17402.7040709 
16486.7717916 
15570.8398376 
14654.9080095 
13738.9761456 
12823.0439869 
11907.1109465 
10991.1757791 
10075.2364289 
9159.29144831 
8243.34775633 
7327.44802183 
6411.7490863 
5496.71146886 
4583.47899105 
3674.40929377 
2773.02118465 
1879.27232617 
962.108330634 
490.410982386 
43276.5185339 
42588.1454619 
41214.9037208 
39843.4066959 
38469.7331277 
37095.6096655 
35721.5096218 
34347.5063708 
32973.563964 
31599.6504399 
30225.7481968 
28851.849668 
27477.9520897 
26104.0546329 
24730.1571209 
23356.2595534 
21982.3619628 
20608.4643897 
19234.5669011 
17860.6696244 
16486.7727604 
15112.8764286 
13738.9798582 
12365.0785621 
10991.1564011 
9617.1662979 
8242.9946746 
6868.41452173 
5493.20698027 
4117.84271061 
2747.08753375 
1379.0671189 
694.215922881 
50440.7501807 
49666.5294909 
48092.9448287 
46490.6057032 
44884.7174487 
43279.5796826 
41675.5729547 
40072.2258739 
38469.1828172 
36866.2563276 
35263.3674178 
33660.4877686 
32057.6090967 
30454.7297365 
28851.8497407 
27248.9693974 
25646.0889198 
24043.2084787 
22440.3283472 
20837.4491484 
19234.5722146 
17631.69978 
16028.8335492 
14425.9666578 
12823.0548447 
11219.9339716 
9616.11605312 
8010.3920854 
6400.18021382 
4781.76333796 
3153.29997789 
1552.9207584 
769.24936744 
</DataArray>
<DataArray type="Float64" Name="Nodal_sigma_yy" NumberOfComponents="1" format="ascii" >
194.208382703 
97.7699939841 
1.854723377 
0.632932180262 
-0.835516267474 
-0.440578085982 
-0.227025726128 
-0.0902461199807 
-0.0314264970752 
-0.00866165339175 
-0.00149965444962 
0.000233460770232 
0.000388018717786 
0.000241643196659 
0.000114564725664 
4.31109831425e-05 
-3.88098351323e-06 
-7.75727710334e-05 
-0.000263359596602 
-0.000710895585371 
-0.00161174754385 
-0.00290456960806 
-0.00298679960952 
0.00517574651485 
0.0452486009772 
0.17770033853 
0.561677629004 
1.41064446961 
3.7015613929 
4.99456683834 
19.4400191469 
-191.374880514 
-417.068235575 
177.92933016 
102.642438266 
15.4507875759 
1.20251251314 
-1.16918278712 
-0.942778952824 
-0.499305878139 
-0.214237036804 
-0.0777846624399 
-0.0232672481794 
-0.00491827187113 
-2.26866138746e-05 
0.000717244452971 
0.00051392504497 
0.000258760136262 
9.85206069117e-05 
-1.68341296103e-05 
-0.000199410498908 
-0.000638363018766 
-0.00164085708889 
-0.00351329187799 
-0.00570863154456 
-0.00358665508043 
0.0212623445213 
0.125357143542 
0.454232789952 
1.32539989634 
3.28422300671 
6.97266292765 
10.9266020808 
3.19892791664 
-179.810685073 
-353.492972501 
132.978390289 
91.5352611289 
29.2712684597 
3.85479114666 
-1.28115643647 
-1.4943870321 
-0.861962762996 
-0.38871929125 
-0.147240046335 
-0.0465283498215 
-0.0110699634749 
-0.000921330728659 
0.00099660286503 
0.000846744987484 
0.000452059404097 
0.000173976012775 
-4.23853301186e-05 
-0.000387319776962 
-0.00118524222177 
-0.00292358672368 
-0.0059324899525 
-0.00861007906136 
-0.00115094671392 
0.0523675210276 
0.257180009466 
0.873304673579 
2.43175709889 
5.72240237507 
10.8039002084 
13.1061031659 
-19.0754049476 
-138.816946456 
-226.967554151 
69.8699497062 
51.0665188665 
20.5879626325 
4.48722161231 
-0.610137708419 
-1.09918306074 
-0.686129999139 
-0.321066598463 
-0.125294949963 
-0.0410139231682 
-0.0104256771639 
-0.00128586644767 
0.0006418088293 
0.000648531973113 
0.000363122817191 
0.000140898747063 
-4.20782617567e-05 
-0.000335225976372 
-0.000995395765969 
-0.00238367224063 
-0.00463828046516 
-0.00607237009392 
0.00224185171199 
0.0514879447794 
0.230224256028 
0.750537112992 
2.02527257578 
4.5613907189 
7.91924751582 
5.76021092864 
-18.1495017008 
-73.348194976 
-108.51028381 
4.13820089307e-11 
3.23723270412e-11 
1.86162196769e-11 
1.1027623259e-11 
5.85487214266e-12 
1.54898316396e-12 
4.5758952183e-12 
1.71951342054e-11 
1.23279164654e-11 
-2.18065565605e-11 
-2.78248535324e-11 
3.95061761083e-11 
7.40243422115e-11 
1.21502807815e-11 
-5.1542770052e-11 
-2.19131379708e-11 
-3.14628323395e-11 
-7.66533503338e-11 
2.23963070312e-11 
7.76481101639e-11 
2.29505303651e-11 
7.74491581979e-13 
2.09752215596e-11 
6.99671431903e-11 
1.01906039163e-10 
-5.6608939758e-11 
-2.07402095498e-10 
-2.66686228656e-10 
-1.0027179087e-10 
2.54871679317e-10 
3.85734999497e-10 
5.1460169459e-10 
6.32891072883e-10 
-69.8699497061 
-51.0665188664 
-20.5879626325 
-4.4872216123 
0.610137708424 
1.09918306073 
0.686129999146 
0.321066598488 
0.125294949971 
0.0410139231751 
0.0104256771892 
0.0012858664861 
-0.000641808818884 
-0.00064853203952 
-0.00036312288556 
-0.00014089874459 
4.20782833288e-05 
0.000335225939224 
0.000995395726463 
0.00238367222585 
0.00463828050903 
0.00607237017547 
-0.00224185171154 
-0.0514879447656 
-0.230224255907 
-0.750537113002 
-2.02527257608 
-4.56139071933 
-7.91924751615 
-5.7602109288 
18.149501701 
73.3481949766 
108.510283811 
-132.978390289 
-91.5352611288 
-29.2712684597 
-3.85479114664 
1.28115643648 
1.4943870321 
0.861962762995 
0.388719291265 
0.147240046338 
0.046528349827 
0.0110699634931 
0.000921330737015 
-0.000996602848147 
-0.000846744957471 
-0.000452059402505 
-0.000173976129133 
4.23851930691e-05 
0.000387319731885 
0.00118524219113 
0.00292358668253 
0.00593248992192 
0.00861007900377 
0.00115094649166 
-0.0523675214357 
-0.257180009678 
-0.873304673643 
-2.43175709943 
-5.72240237587 
-10.803900209 
-13.1061031662 
19.0754049478 
138.816946456 
226.967554151 
-177.92933016 
-102.642438266 
-15.4507875759 
-1.20251251314 
1.16918278713 
0.942778952824 
0.49930587813 
0.214237036815 
0.0777846624834 
0.0232672482042 
0.00491827190069 
2.2686681973e-05 
-0.000717244387943 
-0.000513924983011 
-0.000258760160591 
-9.85207634585e-05 
1.68339481661e-05 
0.000199410429445 
0.000638363095732 
0.00164085718814 
0.00351329190278 
0.00570863151546 
0.00358665494815 
-0.021262344851 
-0.125357143828 
-0.454232790166 
-1.32539989682 
-3.2842230072 
-6.97266292767 
-10.9266020806 
-3.19892791655 
179.810685073 
353.492972501 
-194.208382703 
-97.7699939841 
-1.85472337701 
-0.632932180275 
0.835516267472 
0.440578085975 
0.227025726115 
0.0902461199912 
0.0314264971466 
0.00866165348771 
0.00149965457877 
-0.000233460652908 
-0.000388018748708 
-0.000241643289883 
-0.000114564811156 
-4.31110147474e-05 
3.88100079363e-06 
7.75728012741e-05 
0.000263359688006 
0.000710895681323 
0.00161174769642 
0.00290456982657 
0.00298679974844 
-0.00517574647029 
-0.0452486010881 
-0.177700338734 
-0.561677629067 
-1.41064446931 
-3.70156139225 
-4.99456683819 
-19.4400191475 
191.374880513 
417.068235575 
</DataArray>
<DataArray type="Float64" Name="Nodal_sigma_xy" NumberOfComponents="1" format="ascii" >
-751.370485988 
-802.230715868 
-857.637482745 
-861.782414961 
-860.571046721 
-859.270945407 
-858.549253442 
-858.226174571 
-858.103758152 
-858.06495016 
-858.055649356 
-858.054833446 
-858.055640266 
-858.056335524 
-858.056710865 
-858.056873464 
-858.056915602 
-858.056839024 
-858.056502712 
-858.05551492 
-858.053093948 
-858.048202337 
-858.041167276 
-858.04052081 
-858.084664979 
-858.299226607 
-859.026018968 
-861.063752325 
-866.063282625 
-876.582785037 
-894.180452093 
-836.308662854 
-767.843729147 
-1484.74475497 
-1508.18373997 
-1539.00750192 
-1547.04883525 
-1547.21042759 
-1546.26364101 
-1545.56735821 
-1545.21675649 
-1545.07175421 
-1545.02113978 
-1545.00683751 
-1545.00423177 
-1545.00451419 
-1545.00510383 
-1545.00548129 
-1545.00565714 
-1545.00569675 
-1545.00558767 
-1545.00516986 
-1545.00404202 
-1545.00151422 
-1544.99705925 
-1544.99282415 
-1545.00258361 
-1545.07752948 
-1545.36901122 
-1546.2541608 
-1548.51649526 
-1553.3211751 
-1561.04557355 
-1562.32165609 
-1525.10564396 
-1491.13824586 
-2706.4438995 
-2693.98493599 
-2684.49926085 
-2688.77447503 
-2690.24228552 
-2690.32163508 
-2690.15194521 
-2690.02365535 
-2689.95901414 
-2689.93241042 
-2689.92318419 
-2689.92060298 
-2689.9201465 
-2689.92020732 
-2689.9203177 
-2689.9203817 
-2689.92039046 
-2689.92032588 
-2689.92012259 
-2689.91965572 
-2689.91882155 
-2689.91799191 
-2689.91964736 
-2689.93311251 
-2689.98616623 
-2690.14839872 
-2690.56300216 
-2691.42375186 
-2692.56903018 
-2691.51766885 
-2680.31068949 
-2686.58258883 
-2702.43164856 
-3437.13024503 
-3413.69126003 
-3382.86749808 
-3374.82616475 
-3374.66457241 
-3375.61135899 
-3376.30764179 
-3376.65824351 
-3376.80324579 
-3376.85386022 
-3376.86816249 
-3376.87076822 
-3376.87048581 
-3376.86989616 
-3376.86951871 
-3376.86934286 
-3376.86930325 
-3376.86941233 
-3376.86983014 
-3376.87095798 
-3376.87348578 
-3376.87794075 
-3376.88217585 
-3376.87241639 
-3376.79747052 
-3376.50598878 
-3375.6208392 
-3373.35850474 
-3368.5538249 
-3360.82942645 
-3359.55334391 
-3396.76935604 
-3430.73675414 
-3679.491715 
-3653.54941214 
-3617.11399554 
-3604.41863497 
-3602.69438224 
-3603.83578442 
-3604.89685614 
-3605.47651472 
-3605.72821357 
-3605.82022901 
-3605.84798226 
-3605.8539606 
-3605.85406673 
-3605.85324983 
-3605.85265374 
-3605.85236314 
-3605.85230348 
-3605.85250922 
-3605.85325212 
-3605.85517363 
-3605.85926295 
-3605.86581384 
-3605.86953799 
-3605.84325416 
-3605.69300256 
-3605.15397594 
-3603.59797671 
-3599.83874396 
-3592.54865701 
-3584.13187726 
-3588.94816893 
-3634.27615949 
-3671.04297373 
-3437.13024503 
-3413.69126003 
-3382.86749808 
-3374.82616475 
-3374.66457241 
-3375.61135899 
-3376.30764179 
-3376.65824351 
-3376.80324579 
-3376.85386022 
-3376.86816249 
-3376.87076822 
-3376.87048581 
-3376.86989616 
-3376.86951871 
-3376.86934286 
-3376.86930325 
-3376.86941233 
-3376.86983014 
-3376.87095798 
-3376.87348578 
-3376.87794075 
-3376.88217585 
-3376.87241639 
-3376.79747052 
-3376.50598878 
-3375.6208392 
-3373.35850474 
-3368.5538249 
-3360.82942645 
-3359.55334391 
-3396.76935604 
-3430.73675414 
-2706.4438995 
-2693.98493599 
-2684.49926085 
-2688.77447503 
-2690.24228552 
-2690.32163508 
-2690.15194521 
-2690.02365535 
-2689.95901414 
-2689.93241042 
-2689.92318419 
-2689.92060298 
-2689.9201465 
-2689.92020732 
-2689.9203177 
-2689.9203817 
-2689.92039046 
-2689.92032588 
-2689.92012259 
-2689.91965572 
-2689.91882155 
-2689.91799191 
-2689.91964736 
-2689.93311251 
-2689.98616623 
-2690.14839872 
-2690.56300216 
-2691.42375186 
-2692.56903018 
-2691.51766885 
-2680.31068949 
-2686.58258883 
-2702.43164856 
-1484.74475497 
-1508.18373997 
-1539.00750192 
-1547.04883525 
-1547.21042759 
-1546.26364101 
-1545.56735821 
-1545.21675649 
-1545.07175421 
-1545.02113978 
-1545.00683751 
-1545.00423177 
-1545.00451419 
-1545.00510383 
-1545.00548129 
-1545.00565714 
-1545.00569675 
-1545.00558767 
-1545.00516986 
-1545.00404202 
-1545.00151422 
-1544.99705925 
-1544.99282415 
-1545.00258361 
-1545.07752948 
-1545.36901122 
-1546.2541608 
-1548.51649526 
-1553.3211751 
-1561.04557355 
-1562.32165609 
-1525.10564396 
-1491.13824586 
-751.370485988 
-802.230715868 
-857.637482745 
-861.782414961 
-860.571046721 
-859.270945407 
-858.549253442 
-858.226174571 
-858.103758152 
-858.06495016 
-858.055649356 
-858.054833446 
-858.055640266 
-858.056335524 
-858.056710865 
-858.056873464 
-858.056915602 
-858.056839024 
-858.056502712 
-858.05551492 
-858.053093948 
-858.048202337 
-858.041167276 
-858.04052081 
-858.084664979 
-858.299226607 
-859.026018968 
-861.063752325 
-866.063282625 
-876.582785037 
-894.180452093 
-836.308662854 
-767.843729147 
</DataArray>
</PointData>
<CellData>
</CellData>
<Points>
<DataArray type="Float64" Name="Points" NumberOfComponents="3" format="ascii">
0.0 -2.0 0.0
0.5 -2.0 0.0
1.0 -2.0 0.0
1.5 -2.0 0.0
2.0 -2.0 0.0
2.5 -2.0 0.0
3.0 -2.0 0.0
3.5 -2.0 0.0
4.0 -2.0 0.0
4.5 -2.0 0.0
5.0 -2.0 0.0
5.5 -2.0 0.0
6.0 -2.0 0.0
6.5 -2.0 0.0
7.0 -2.0 0.0
7.5 -2.0 0.0
8.0 -2.0 0.0
8.5 -2.0 0.0
9.0 -2.0 0.0
9.5 -2.0 0.0
10.0 -2.0 0.0
10.5 -2.0 0.0
11.0 -2.0 0.0
11.5 -2.0 0.0
12.0 -2.0 0.0
12.5 -2.0 0.0
13.0 -2.0 0.0
13.5 -2.0 0.0
14.0 -2.0 0.0
14.5 -2.0 0.0
15.0 -2.0 0.0
15.5 -2.0 0.0
16.0 -2.0 0.0
0.0 -1.5 0.0
0.5 -1.5 0.0
1.0 -1.5 0.0
1.5 -1.5 0.0
2.0 -1.5 0.0
2.5 -1.5 0.0
3.0 -1.5 0.0
3.5 -1.5 0.0
4.0 -1.5 0.0
4.5 -1.5 0.0
5.0 -1.5 0.0
5.5 -1.5 0.0
6.0 -1.5 0.0
6.5 -1.5 0.0
7.0 -1.5 0.0
7.5 -1.5 0.0
8.0 -1.5 0.0
8.5 -1.5 0.0
9.0 -1.5 0.0
9.5 -1.5 0.0
10.0 -1.5 0.0
10.5 -1.5 0.0
11.0 -1.5 0.0
11.5 -1.5 0.0
12.0 -1.5 0.0
12.5 -1.5 0.0
13.0 -1.5 0.0
13.5 -1.5 0.0
14.0 -1.5 0.0
14.5 -1.5 0.0
15.0 -1.5 0.0
15.5 -1.5 0.0
16.0 -1.5 0.0
0.0 -1.0 0.0
0.5 -1.0 0.0
1.0 -1.0 0.0
1.5 -1.0 0.0
2.0 -1.0 0.0
2.5 -1.0 0.0
3.0 -1.0 0.0
3.5 -1.0 0.0
4.0 -1.0 0.0
4.5 -1.0 0.0
5.0 -1.0 0.0
5.5 -1.0 0.0
6.0 -1.0 0.0
6.5 -1.0 0.0
7.0 -1.0 0.0
7.5 -1.0 0.0
8.0 -1.0 0.0
8.5 -1.0 0.0
9.0 -1.0 0.0
9.5 -1.0 0.0
10.0 -1.0 0.0
10.5 -1.0 0.0
11.0 -1.0 0.0
11.5 -1.0 0.0
12.0 -1.0 0.0
12.5 -1.0 0.0
13.0 -1.0 0.0
13.5 -1.0 0.0
14.0 -1.0 0.0
14.5 -1.0 0.0
15.0 -1.0 0.0
15.5 -1.0 0.0
16.0 -1.0 0.0
0.0 -0.5 0.0
0.5 -0.5 0.0
1.0 -0.5 0.0
1.5 -0.5 0.0
2.0 -0.5 0.0
2.5 -0.5 0.0
3.0 -0.5 0.0
3.5 -0.5 0.0
4.0 -0.5 0.0
4.5 -0.5 0.0
5.0 -0.5 0.0
5.5 -0.5 0.0
6.0 -0.5 0.0
6.5 -0.5 0.0
7.0 -0.5 0.0
7.5 -0.5 0.0
8.0 -0.5 0.0
8.5 -0.5 0.0
9.0 -0.5 0.0
9.5 -0.5 0.0
10.0 -0.5 0.0
10.5 -0.5 0.0
11.0 -0.5 0.0
11.5 -0.5 0.0
12.0 -0.5 0.0
12.5 -0.5 0.0
13.0 -0.5 0.0
13.5 -0.5 0.0
14.0 -0.5 0.0
14.5 -0.5 0.0
15.0 -0.5 0.0
15.5 -0.5 0.0
16.0 -0.5 0.0
0.0 0.0 0.0
0.5 0.0 0.0
1.0 0.0 0.0
1.5 0.0 0.0
2.0 0.0 0.0
2.5 0.0 0.0
3.0 0.0 0.0
3.5 0.0 0.0
4.0 0.0 0.0
4.5 0.0 0.0
5.0 0.0 0.0
5.5 0.0 0.0
6.0 0.0 0.0
6.5 0.0 0.0
7.0 0.0 0.0
7.5 0.0 0.0
8.0 0.0 0.0
8.5 0.0 0.0
9.0 0.0 0.0
9.5 0.0 0.0
10.0 0.0 0.0
10.5 0.0 0.0
11.0 0.0 0.0
11.5 0.0 0.0
12.0 0.0 0.0
12.5 0.0 0.0
13.0 0.0 0.0
13.5 0.0 0.0
14.0 0.0 0.0
14.5 0.0 0.0
15.0 0.0 0.0
15.5 0.0 0.0
16.0 0.0 0.0
0.0 0.5 0.0
0.5 0.5 0.0
1.0 0.5 0.0
1.5 0.5 0.0
2.0 0.5 0.0
2.5 0.5 0.0
3.0 0.5 0.0
3.5 0.5 0.0
4.0 0.5 0.0
4.5 0.5 0.0
5.0 0.5 0.0
5.5 0.5 0.0
6.0 0.5 0.0
6.5 0.5 0.0
7.0 0.5 0.0
7.5 0.5 0.0
8.0 0.5 0.0
8.5 0.5 0.0
9.0 0.5 0.0
9.5 0.5 0.0
10.0 0.5 0.0
10.5 0.5 0.0
11.0 0.5 0.0
11.5 0.5 0.0
12.0 0.5 0.0
12.5 0.5 0.0
13.0 0.5 0.0
13.5 0.5 0.0
14.0 0.5 0.0
14.5 0.5 0.0
15.0 0.5 0.0
15.5 0.5 0.0
16.0 0.5 0.0
0.0 1.0 0.0
0.5 1.0 0.0
1.0 1.0 0.0
1.5 1.0 0.0
2.0 1.0 0.0
2.5 1.0 0.0
3.0 1.0 0.0
3.5 1.0 0.0
4.0 1.0 0.0
4.5 1.0 0.0
5.0 1.0 0.0
5.5 1.0 0.0
6.0 1.0 0.0
6.5 1.0 0.0
7.0 1.0 0.0
7.5 1.0 0.0
8.0 1.0 0.0
8.5 1.0 0.0
9.0 1.0 0.0
9.5 1.0 0.0
10.0 1.0 0.0
10.5 1.0 0.0
11.0 1.0 0.0
11.5 1.0 0.0
12.0 1.0 0.0
12.5 1.0 0.0
13.0 1.0 0.0
13.5 1.0 0.0
14.0 1.0 0.0
14.5 1.0 0.0
15.0 1.0 0.0
15.5 1.0 0.0
16.0 1.0 0.0
0.0 1.5 0.0
0.5 1.5 0.0
1.0 1.5 0.0
1.5 1.5 0.0
2.0 1.5 0.0
2.5 1.5 0.0
3.0 1.5 0.0
3.5 1.5 0.0
4.0 1.5 0.0
4.5 1.5 0.0
5.0 1.5 0.0
5.5 1.5 0.0
6.0 1.5 0.0
6.5 1.5 0.0
7.0 1.5 0.0
7.5 1.5 0.0
8.0 1.5 0.0
8.5 1.5 0.0
9.0 1.5 0.0
9.5 1.5 0.0
10.0 1.5 0.0
10.5 1.5 0.0
11.0 1.5 0.0
11.5 1.5 0.0
12.0 1.5 0.0
12.5 1.5 0.0
13.0 1.5 0.0
13.5 1.5 0.0
14.0 1.5 0.0
14.5 1.5 0.0
15.0 1.5 0.0
15.5 1.5 0.0
16.0 1.5 0.0
0.0 2.0 0.0
0.5 2.0 0.0
1.0 2.0 0.0
1.5 2.0 0.0
2.0 2.0 0.0
2.5 2.0 0.0
3.0 2.0 0.0
3.5 2.0 0.0
4.0 2.0 0.0
4.5 2.0 0.0
5.0 2.0 0.0
5.5 2.0 0.0
6.0 2.0 0.0
6.5 2.0 0.0
7.0 2.0 0.0
7.5 2.0 0.0
8.0 2.0 0.0
8.5 2.0 0.0
9.0 2.0 0.0
9.5 2.0 0.0
10.0 2.0 0.0
10.5 2.0 0.0
11.0 2.0 0.0
11.5 2.0 0.0
12.0 2.0 0.0
12.5 2.0 0.0
13.0 2.0 0.0
13.5 2.0 0.0
14.0 2.0 0.0
14.5 2.0 0.0
15.0 2.0 0.0
15.5 2.0 0.0
16.0 2.0 0.0
</DataArray>
</Points>
<Cells>
<DataArray type="Int64" Name="connectivity" format="ascii">
0 1 34 33 
1 2 35 34 
2 3 36 35 
3 4 37 36 
4 5 38 37 
5 6 39 38 
6 7 40 39 
7 8 41 40 
8 9 42 41 
9 10 43 42 
10 11 44 43 
11 12 45 44 
12 13 46 45 
13 14 47 46 
14 15 48 47 
15 16 49 48 
16 17 50 49 
17 18 51 50 
18 19 52 51 
19 20 53 52 
20 21 54 53 
21 22 55 54 
22 23 56 55 
23 24 57 56 
24 25 58 57 
25 26 59 58 
26 27 60 59 
27 28 61 60 
28 29 62 61 