<?xml version="1.0"?>
<VTKFile type="UnstructuredGrid" version="0.1" byte_order="LittleEndian" compressor="vtkZLibDataCompressor">
<UnstructuredGrid>
<Piece NumberOfPoints="297" NumberOfCells="256">
<PointData>
<DataArray type="Float64" Name="displacement" NumberOfComponents="3" format="ascii" >
0.0 -0.0018  0.
-0.0028809299273833367 -0.0024211510026342082  0.
-0.005675880384413994 -0.0037713061972980567  0.
-0.008379125938980422 -0.005810945034082351  0.
-0.010990129495791206 -0.00851585821308611  0.
-0.013509190318449079 -0.01186217334589619  0.
-0.015936496203315595 -0.015826793010015976  0.
-0.01827214714673399 -0.02038675974095623  0.
-0.02051618469447203 -0.02551917153362842  0.
-0.02266862397299739 -0.031201134685217926  0.
-0.024729469461603856 -0.03740975501051665  0.
-0.026698722100085767 -0.04412213639442014  0.
-0.028576381884967784 -0.051315381486331794  0.
-0.030362448674307353 -0.058966592334943155  0.
-0.032056922367633765 -0.06705287074904376  0.
-0.03365980291445593 -0.07555131845579206  0.
-0.0351710902936802 -0.08443903715883048  0.
-0.03659078449946295 -0.0936931285541104  0.
-0.037918885540076656 -0.10329069433026052  0.
-0.039155393455729194 -0.11320883616747243  0.
-0.04030030837079089 -0.12342465575619063  0.
-0.04135363060507523 -0.13391525489728276  0.
-0.04231536084586482 -0.14465773585053018  0.
-0.043185500219868306 -0.1556292023274851  0.
-0.04396404946861058 -0.16680676183720952  0.
-0.04465100460368616 -0.1781675304052241  0.
-0.045246341439369765 -0.1896886381815513  0.
-0.045749972597997825 -0.20134723104192623  0.
-0.04616163519897023 -0.21312040717171468  0.
-0.046480671053800236 -0.22498510431477595  0.
-0.046705408854119605 -0.23691666366034056  0.
-0.046833255539150485 -0.24888943754511125  0.
-0.04686531985833917 -0.26082991559933677  0.
0.000188671875 -0.0010125  0.
-0.001980299467158443 -0.001676007658943932  0.
-0.0040746198383789815 -0.0030495471164338596  0.
-0.006100803704689056 -0.005113658905108049  0.
-0.008058529843557797 -0.007842626623275277  0.
-0.009947632683966054 -0.011213006710829154  0.
-0.011768052637840245 -0.015201671204630483  0.
-0.013519776825063666 -0.01978568101466165  0.
-0.015202803906685212 -0.02494213528839649  0.
-0.01681713467662872 -0.030648141218250317  0.
-0.018362769885353524 -0.036880804542364705  0.
-0.01983970994310851 -0.04361722905255834  0.
-0.02124795502971224 -0.05083451732540073  0.
-0.022587505211505862 -0.05850977137526203  0.
-0.023858360508828707 -0.06662009299682334  0.
-0.025060520926369106 -0.07514258391255976  0.
-0.026193986464845387 -0.08405434582505042  0.
-0.027258757125078373 -0.09333248043049429  0.
-0.028254832909523638 -0.10295408941806859  0.
-0.029182213822448018 -0.11289627446731304  0.
-0.03004089986582157 -0.12313613726198062  0.
-0.03083089101931309 -0.13365077957533691  0.
-0.031552187172466085 -0.14441730358274824  0.
-0.03220478793513819 -0.15541281276940713  0.
-0.032788692191830636 -0.16661441418652853  0.
-0.03330389723516905 -0.17799922292426404  0.
-0.03375039767741901 -0.1895443692157865  0.
-0.034128186152137335 -0.20122699715570344  0.
-0.03443726697356574 -0.21302423825590752  0.
-0.034677745832782006 -0.22491292490750558  0.
-0.03485014566001765 -0.23686928667704363  0.
-0.03495698774415858 -0.2488632849164726  0.
-0.0349893363146466 -0.26087469757050963  0.
0.000215625 -0.00045  0.
-0.0012314818548685314 -0.001138974024571265  0.
-0.0026294864661391103 -0.0025340257226980378  0.
-0.0039800929509991 -0.004615714199830414  0.
-0.005284924324222003 -0.007361910547689828  0.
-0.006544123562090655 -0.010749399208740977  0.
-0.007757642760846482 -0.014755192901447426  0.
-0.008925422383584588 -0.019356352662996002  0.
-0.010047428571842229 -0.024529970728446225  0.
-0.011123646105600113 -0.030253146811737002  0.
-0.01215406923123889 -0.03650298281677952  0.
-0.013138696134065772 -0.0432565808390722  0.
-0.014077526383622292 -0.05049104283968332  0.
-0.014970559944978108 -0.05818347064593258  0.
-0.01581779685754834 -0.06631096601219741  0.
-0.01661923715448338 -0.0748506306604928  0.
-0.01737488085262197 -0.083779566300468  0.
-0.018084727955129835 -0.09307487463734072  0.
-0.018748778448804133 -0.10271365737516726  0.
-0.01936703228796023 -0.11267301622164205  0.
-0.01993948935835261 -0.12293005290435927  0.
-0.02046614942745019 -0.13346186922084458  0.
-0.02094701215640205 -0.14424556716725634  0.
-0.02138207749388758 -0.15525824922214945  0.
-0.021771347471237327 -0.1664770187987684  0.
-0.022114832113311753 -0.17787898067645058  0.
-0.022412565556392264 -0.18944123902867654  0.
-0.022664643202889145 -0.20114088955553946  0.
-0.022871293119949194 -0.21295496586555357  0.
-0.02303294489745539 -0.22486035451068206  0.
-0.023150210368390493 -0.23683309280858367  0.
-0.023221095474201366 -0.24885039897750216  0.
-0.023241967620262555 -0.26089799980607303  0.
0.000134765625 -0.0001125  0.
-0.0005890970685280386 -0.000815691268281926  0.
-0.001288410251040688 -0.002223853906194284  0.
-0.001963922878177819 -0.0043169413026962755  0.
-0.0026162743343461446 -0.007073556952965804  0.
-0.0032458002673793488 -0.010471299717604283  0.
-0.003852517037837012 -0.014487338106962764  0.
-0.004436387810382162 -0.019098769159541253  0.
-0.004997383817974449 -0.024282676688834888  0.
-0.005535490399417939 -0.030016151502481245  0.
-0.006050701467959858 -0.03627629002554967  0.
-0.006543014894193968 -0.04304019188596803  0.
-0.007012430074738143 -0.05028495809398964  0.
-0.007458946898803554 -0.05798769017346164  0.
-0.007882565377715369 -0.06612548980463641  0.
-0.008283285535818481 -0.074675458702918  0.
-0.008661107387465184 -0.08361469858641968  0.
-0.009016030934534885 -0.09292031117321034  0.
-0.009348056162170807 -0.10256939818872737  0.
-0.009657183024013801 -0.11253906137895507  0.
-0.009943411414522122 -0.12280640252389977  0.
-0.010206741147922296 -0.1333485234193571  0.
-0.010447172050107739 -0.1441425257053589  0.
-0.010664704540429344 -0.15516551016674826  0.
-0.010859341787702708 -0.16639457459146903  0.
-0.011031096071878965 -0.17780680808241983  0.
-0.011180004562880473 -0.18937927928231052  0.
-0.011306161374150506 -0.20108901378539737  0.
-0.011409758424321176 -0.21291298849012077  0.
-0.011491058489906149 -0.22482815713404952  0.
-0.011549826447224935 -0.23681206700631866  0.
-0.011584935306912823 -0.24884460951421689  0.
-0.011595306587530337 -0.26090934182465253  0.
0.0 0.0  0.
8.139439976866617e-17 -0.0007078080211461062  0.
1.6886882928909237e-16 -0.0021203305512129565  0.
2.6042872360885115e-16 -0.004217297713197691  0.
3.5309854759344947e-16 -0.006977455536365171  0.
4.47420179016446e-16 -0.010378612191300549  0.
5.410555116748779e-16 -0.014398060897205274  0.
6.340179231132529e-16 -0.019012911267990634  0.
7.272676486849339e-16 -0.024200246579559843  0.
8.21071277068859e-16 -0.029937153441850863  0.
9.14136435564533e-16 -0.036200725846696036  0.
1.0114959833596786e-15 -0.04296806223866658  0.
1.104149154855488e-15 -0.050216263168851555  0.
1.1942663119475071e-15 -0.05792243000834395  0.
1.2850082328392335e-15 -0.06606366439817674  0.
1.3777569911418685e-15 -0.07461706804888574  0.
1.463734840935934e-15 -0.08355974268204402  0.
1.5572738168498402e-15 -0.09286879002168882  0.
1.6414408916602899e-15 -0.10252131180323965  0.
1.7197944860064468e-15 -0.1124944097899372  0.
1.7908249861857207e-15 -0.12276518578307825  0.
1.8716843867814318e-15 -0.1333107415672536  0.
1.9747564069526477e-15 -0.14410817858529598  0.
2.057124671049003e-15 -0.15513459676819186  0.
2.1254329901797642e-15 -0.16636709111002465  0.
2.1797834644307014e-15 -0.17778274340156963  0.
2.2202325675217762e-15 -0.1893586049810201  0.
2.2686685761874527e-15 -0.2010716752182796  0.
2.2909267002993097e-15 -0.2128988976555765  0.
2.299876527733967e-15 -0.22481739388397717  0.
2.3141215163156626e-15 -0.23680526956691803  0.
2.3109131367695067e-15 -0.2488428412429298  0.
2.3207810716848957e-15 -0.2609128220001102  0.
-0.000134765625 -0.0001125  0.
0.0005890970685282023 -0.0008156912682819463  0.
0.0012884102510410278 -0.002223853906194323  0.
0.0019639228781783433 -0.004316941302696323  0.
0.0026162743343468554 -0.0070735569529658615  0.
0.0032458002673802482 -0.010471299717604342  0.
0.003852517037838099 -0.014487338106962823  0.
0.004436387810383439 -0.019098769159541316  0.
0.004997383817975912 -0.02428267668883495  0.
0.005535490399419584 -0.03001615150248131  0.
0.006050701467961687 -0.03627629002554977  0.
0.006543014894195986 -0.0430401918859681  0.
0.007012430074740344 -0.050284958093989716  0.
0.00745894689880594 -0.057987690173461746  0.
0.007882565377717936 -0.06612548980463652  0.
0.008283285535821222 -0.07467545870291815  0.
0.008661107387468097 -0.0836146985864198  0.
0.009016030934537983 -0.09292031117321048  0.
0.009348056162174078 -0.10256939818872744  0.
0.009657183024017229 -0.1125390613789552  0.
0.009943411414525712 -0.12280640252389989  0.
0.01020674114792605 -0.1333485234193572  0.
0.010447172050111652 -0.14414252570535901  0.
0.010664704540433414 -0.15516551016674837  0.
0.010859341787706917 -0.1663945745914691  0.
0.011031096071883302 -0.17780680808241986  0.
0.011180004562884895 -0.1893792792823105  0.
0.011306161374155 -0.2010890137853974  0.
0.01140975842432575 -0.21291298849012075  0.
0.01149105848991073 -0.22482815713404938  0.
0.011549826447229534 -0.23681206700631863  0.
0.011584935306917434 -0.24884460951421683  0.
0.011595306587534963 -0.2609093418246525  0.
-0.000215625 -0.00045  0.
0.001231481854868698 -0.0011389740245713082  0.
0.0026294864661394555 -0.0025340257226981167  0.
0.003980092950999631 -0.004615714199830513  0.
0.00528492432422272 -0.007361910547689939  0.
0.006544123562091561 -0.010749399208741094  0.
0.007757642760847573 -0.014755192901447547  0.
0.00892542238358587 -0.01935635266299613  0.
0.010047428571843701 -0.024529970728446343  0.
0.011123646105601763 -0.03025314681173712  0.
0.01215406923124072 -0.036502982816779675  0.
0.013138696134067788 -0.043256580839072356  0.
0.014077526383624493 -0.05049104283968346  0.
0.014970559944980488 -0.05818347064593274  0.
0.01581779685755091 -0.06631096601219758  0.
0.016619237154486134 -0.07485063066049302  0.
0.017374880852624893 -0.08377956630046816  0.
0.018084727955132923 -0.09307487463734093  0.
0.018748778448807395 -0.10271365737516747  0.
0.019367032287963663 -0.11267301622164216  0.
0.0199394893583562 -0.12293005290435945  0.
0.020466149427453926 -0.13346186922084471  0.
0.020947012156405924 -0.14424556716725648  0.
0.021382077493891587 -0.15525824922214954  0.
0.021771347471241473 -0.1664770187987685  0.
0.02211483211331603 -0.17787898067645078  0.
0.022412565556396636 -0.18944123902867654  0.
0.022664643202893638 -0.20114088955553952  0.
0.022871293119953735 -0.2129549658655536  0.
0.02303294489746 -0.22486035451068198  0.
0.023150210368395145 -0.23683309280858367  0.
0.023221095474206 -0.24885039897750214  0.
0.023241967620267198 -0.26089799980607314  0.
-0.000188671875 -0.0010125  0.
0.001980299467158615 -0.0016760076589440042  0.
0.0040746198383793415 -0.003049547116433988  0.
0.006100803704689603 -0.005113658905108202  0.
0.008058529843558529 -0.007842626623275445  0.
0.009947632683966964 -0.011213006710829334  0.
0.011768052637841345 -0.015201671204630661  0.
0.013519776825064953 -0.019785681014661837  0.
0.015202803906686683 -0.02494213528839668  0.
0.01681713467663037 -0.030648141218250487  0.
0.018362769885355356 -0.03688080454236489  0.
0.01983970994311052 -0.04361722905255854  0.
0.02124795502971445 -0.05083451732540098  0.
0.022587505211508256 -0.058509771375262296  0.
0.023858360508831288 -0.06662009299682362  0.
0.02506052092637186 -0.07514258391256005  0.
0.02619398646484829 -0.08405434582505064  0.
0.02725875712508146 -0.09333248043049461  0.
0.028254832909526885 -0.10295408941806887  0.
0.029182213822451425 -0.11289627446731329  0.
0.03004089986582515 -0.12313613726198094  0.
0.03083089101931683 -0.1336507795753371  0.
0.03155218717246994 -0.14441730358274849  0.
0.032204787935142164 -0.15541281276940735  0.
0.03278869219183477 -0.16661441418652875  0.
0.033303897235173276 -0.17799922292426418  0.
0.03375039767742335 -0.18954436921578674  0.
0.03412818615214178 -0.20122699715570355  0.
0.03443726697357028 -0.21302423825590747  0.
0.034677745832786586 -0.22491292490750553  0.
0.034850145660022286 -0.23686928667704338  0.
0.03495698774416325 -0.24886328491647253  0.
0.034989336314651266 -0.2608746975705095  0.
0.0 -0.0018  0.
0.002880929927383554 -0.002421151002634334  0.
0.00567588038441439 -0.0037713061972982367  0.
0.00837912593898099 -0.005810945034082559  0.
0.010990129495791949 -0.008515858213086334  0.
0.01350919031845 -0.011862173345896423  0.
0.0159364962033167 -0.01582679301001622  0.
0.018272147146735265 -0.02038675974095647  0.
0.020516184694473485 -0.025519171533628652  0.
0.02266862397299903 -0.031201134685218165  0.
0.0247294694616057 -0.037409755010516896  0.
0.02669872210008781 -0.04412213639442042  0.
0.028576381884970012 -0.05131538148633209  0.
0.030362448674309764 -0.05896659233494348  0.
0.03205692236763634 -0.06705287074904413  0.
0.03365980291445865 -0.0755513184557924  0.
0.035171090293683115 -0.08443903715883076  0.
0.036590784499466025 -0.0936931285541107  0.
0.03791888554007989 -0.10329069433026085  0.
0.03915539345573259 -0.11320883616747277  0.
0.04030030837079442 -0.12342465575619091  0.
0.04135363060507892 -0.13391525489728306  0.
0.04231536084586869 -0.1446577358505304  0.
0.04318550021987229 -0.15562920232748548  0.
0.043964049468614666 -0.16680676183720977  0.
0.044651004603690383 -0.17816753040522426  0.
0.04524634143937409 -0.18968863818155157  0.
0.045749972598002175 -0.2013472310419263  0.
0.04616163519897464 -0.2131204071717148  0.
0.04648067105380472 -0.22498510431477584  0.
0.04670540885412421 -0.23691666366034048  0.
0.04683325553915517 -0.24888943754511098  0.
0.046865319858343885 -0.2608299155993367  0.
</DataArray>
<DataArray type="Float64" Name="Nodal_sigma_xx" NumberOfComponents="1" format="ascii" >
-5044.075018060106 
-4966.652949076675 
-4809.294482862531 
-4649.060570312602 
-4488.471744860851 
-4327.957968245998 
-4167.557295463044 
-4007.2225873842976 
-3846.918281709141 
-3686.6256327496776 
-3526.3367417737236 
-3366.0487768575085 
-3205.760909668916 
-3045.472973641931 
-2885.1849740689704 
-2724.8969397382293 
-2564.6088919745707 
-2404.32084786453 
-2244.032834718723 
-2083.744914832936 
-1923.4572214579835 
-1763.1699779963442 
-1602.8833549131152 
-1442.5966657827814 
-1282.3054844663225 
-1121.9933971636156 
-961.6116053111035 
-801.0392085395217 
-640.0180213817765 
-478.17633379551444 
-315.3299977889934 
-155.2920758396197 
-76.92493674392728 
-4327.6518533790495 
-4258.814546179476 
-4121.490372069891 
-3984.3406695790336 
-3846.9733127621666 
-3709.5609665470292 
-3572.150962169864 
-3434.7506370716337 
-3297.356396392134 
-3159.965043983726 
-3022.57481967656 
-2885.1849667967927 
-2747.795208964835 
-2610.4054632885036 
-2473.0157120822946 
-2335.625955332748 
-2198.236196273031 
-2060.8464389661 
-1923.4566901098788 
-1786.0669624403718 
-1648.6772760403132 
-1511.2876428620636 
-1373.8979858198365 
-1236.5078562072165 
-1099.115640111624 
-961.7166297890085 
-824.2994674595332 
-686.8414521725424 
-549.3206980266901 
-411.7842710612003 
-274.70875337482033 
-137.90671188952973 
-69.42159228795512 
-2889.534521002716 
-2841.4265725903333 
-2747.259921806498 
-2655.546807428099 
-2564.230332358505 
-2472.8454243665365 
-2381.358190654967 
-2289.8090793222145 
-2198.231388359362 
-2106.6426327122554 
-2015.0502866456857 
-1923.457041615874 
-1831.863693809822 
-1740.2704070841057 
-1648.6771791604133 
-1557.0839837591739 
-1465.490800951216 
-1373.8976145566626 
-1282.304398684629 
-1190.7110946441749 
-1099.1175779130863 
-1007.5236428846308 
-915.9291448301409 
-824.3347756318976 
-732.7448021819238 
-641.1749086288012 
-549.6711468856984 
-458.3478991040777 
-367.4409293769609 
-277.30211846459696 
-187.92723261721994 
-96.21083306330267 
-49.04109823850134 
-1445.320022470868 
-1421.333808988928 
-1373.9480399784443 
-1327.6568895250182 
-1281.9646515048591 
-1236.333936393331 
-1190.6390607748197 
-1144.889474815564 
-1099.1109838702228 
-1053.3202202595194 
-1007.5250672746992 
-961.728630060943 
-915.9319357785686 
-870.1352505141217 
-824.3386099900625 
-778.541999416332 
-732.7454007821451 
-686.9487964551133 
-641.1521578089184 
-595.3554250729287 
-549.5584859751258 
-503.761199476236 
-457.9636456072846 
-412.1671528679391 
-366.37751385316085 
-320.6133927642165 
-274.92466535282 
-229.42197988799262 
-184.28640409390977 
-139.59051723435115 
-94.5205377408647 
-47.879828970024306 
-24.062662162439874 
1.7598722479306161e-10 
1.7962520360015333e-10 
1.8550849745224696e-10 
1.8741275198408403e-10 
1.8766854736895766e-10 
1.8758328224066645e-10 
1.8692958292376716e-10 
1.858211362559814e-10 
1.830642304412322e-10 
1.7845991351350676e-10 
1.7828938325692434e-10 
1.7959678189072292e-10 
1.7504930838185828e-10 
1.6754597709223162e-10 
1.5850787349336315e-10 
1.489581791247474e-10 
1.5235457340168068e-10 
1.5708678802184295e-10 
1.4838974493613932e-10 
1.3278622645884752e-10 
1.2779821645381162e-10 
1.4722445484949276e-10 
1.5050716228870442e-10 
1.2674661320488667e-10 
1.1186784831807017e-10 
9.92557147583284e-11 
9.096368103200803e-11 
7.986855621311406e-11 
5.5070614735086565e-11 
5.2594373300962616e-11 
3.9461767187276564e-11 
2.7212898601192137e-11 
3.68860497701462e-11 
1445.3200224712216 
1421.3338089892886 
1373.9480399788163 
1327.6568895253931 
1281.964651505235 
1236.3339363937064 
1190.6390607751935 
1144.8894748159375 
1099.1109838705893 
1053.3202202598789 
1007.5250672750612 
961.728630061304 
915.9319357789225 
870.135250514471 
824.3386099904003 
778.5419994166538 
732.7454007824689 
686.9487964554355 
641.152157809225 
595.3554250732224 
549.5584859754129 
503.76119947653865 
457.9636456075913 
412.16715286822046 
366.3775138534062 
320.61339276440964 
274.9246653529982 
229.42197988815184 
184.28640409400188 
139.59051723441786 
94.52053774090206 
47.87982897003365 
24.062662162457123 
2889.5345210030746 
2841.4265725906994 
2747.259921806872 
2655.5468074284727 
2564.2303323588767 
2472.845424366908 
2381.358190655342 
2289.8090793225897 
2198.2313883597258 
2106.6426327126164 
2015.0502866460552 
1923.4570416162414 
1831.8636938101745 
1740.2704070844557 
1648.6771791607634 
1557.0839837595079 
1465.4908009515452 
1373.8976145569827 
1282.3043986849348 
1190.711094644478 
1099.1175779133853 
1007.5236428849108 
915.9291448304 
824.3347756321638 
732.7448021821766 
641.1749086289915 
549.6711468858633 
458.3478991042373 
367.44092937707137 
277.30211846468836 
187.92723261729094 
96.21083306333254 
49.04109823852288 
4327.651853379437 
4258.814546179856 
4121.4903720702605 
3984.3406695793997 
3846.9733127625304 
3709.5609665473958 
3572.150962170234 
3434.750637072003 
3297.356396392497 
3159.9650439840902 
3022.5748196769327 
2885.1849667971646 
2747.795208965195 
2610.4054632888524 
2473.0157120826298 
2335.625955333075 
2198.236196273369 
2060.8464389664305 
1923.4566901101855 
1786.0669624406714 
1648.6772760406157 
1511.2876428623422 
1373.8979858200669 
1236.507856207439 
1099.115640111862 
961.7166297892172 
824.2994674597018 
686.841452172687 
549.3206980268163 
411.7842710613414 
274.7087533749596 
137.90671188962494 
69.42159228803138 
5044.075018060516 
4966.6529490770645 
4809.294482862893 
4649.060570312962 
4488.471744861211 
4327.9579682463645 
4167.55729546341 
4007.2225873846605 
3846.918281709508 
3686.625632750047 
3526.3367417740974 
3366.0487768578796 
3205.7609096692886 
3045.4729736422905 
2885.1849740692983 
2724.896939738561 
2564.6088919749313 
2404.3208478648817 
2244.0328347190407 
2083.7449148332507 
1923.4572214583077 
1763.169977996653 
1602.8833549133699 
1442.5966657830031 
1282.3054844665594 
1121.9933971638402 
961.6116053112854 
801.0392085396506 
640.0180213818821 
478.1763337956421 
315.3299977891257 
155.29207583971464 
76.92493674399742 
</DataArray>
<DataArray type="Float64" Name="Nodal_sigma_yy" NumberOfComponents="1" format="ascii" >
19.420838272244396 
9.776999399372016 
0.18547233772636673 
0.06329321803582388 
-0.08355162675246675 
-0.04405780859923425 
-0.022702572612388394 
-0.00902461199825666 
-0.003142649719166002 
-0.0008661653583317275 
-0.00014996546741485872 
2.3346050085137904e-05 
3.880185016669202e-05 
2.4164291090755796e-05 
1.1456447481350551e-05 
4.3110848366723076e-06 
-3.880906831454922e-07 
-7.757252433293615e-06 
-2.633593641121479e-05 
-7.108951658096885e-05 
-0.00016117477582611173 
-0.00029045708720332186 
-0.0002986800926834121 
0.0005175745912850971 
0.004524860120881158 
0.017770033889703996 
0.05616776290870007 
0.14106444691955744 
0.37015613921526125 
0.4994566837533867 
1.944001914722108 
-19.13748805119256 
-41.70682355736587 
17.792933017756695 
10.264243827633393 
1.545078757761786 
0.1202512513336842 
-0.11691827872107297 
-0.09427789529394204 
-0.04993058782365267 
-0.021423703689620766 
-0.0077784662550755 
-0.0023267248250391503 
-0.0004918271888243453 
-2.268672574246011e-06 
7.172441097225146e-05 
5.139244349550154e-05 
2.5875949134501752e-05 
9.852019474010376e-06 
-1.6834299145784826e-06 
-1.9941060457995263e-05 
-6.383632359074909e-05 
-0.0001640857643394611 
-0.0003513292702450599 
-0.0005708632210001952 
-0.000358665570139749 
0.0021262344044785664 
0.01253571438370571 
0.045423279034888964 
0.13253998958048285 
0.32842230057402233 
0.6972662927001476 
1.092660208071809 
0.3198927917360974 
-17.981068507149736 
-35.34929724995925 
13.297839030188385 
9.153526113796872 
2.927126846283244 
0.38547911471958685 
-0.12811564365388506 
-0.1494387032272968 
-0.08619627631296112 
-0.03887192913562387 
-0.014724004640243038 
-0.004652834979999909 
-0.001106996342372213 
-9.213307678379579e-05 
9.966027303676128e-05 
8.467446777871146e-05 
4.5205878265619504e-05 
1.739754429053164e-05 
-4.2385702911929e-06 
-3.873203808524295e-05 
-0.00011852430338166187 
-0.00029235875387456645 
-0.0005932490546207703 
-0.0008610079317072916 
-0.00011509469820580875 
0.0052367520783533905 
0.025718000950199382 
0.08733046734158201 
0.24317570984542414 
0.5722402374850226 
1.0803900208015875 
1.3106103165613945 
-1.9075404947397523 
-13.881694645610727 
-22.696755415138906 
6.986994971319046 
5.106651887171347 
2.0587962634778982 
0.44872216129094866 
-0.06101377084123172 
-0.10991830608267428 
-0.06861299992003111 
-0.032106659851027786 
-0.012529494998998914 
-0.00410139232009854 
-0.001042567727679966 
-0.00012858665803250346 
6.418087867565703e-05 
6.485319042148774e-05 
3.631224143418876e-05 
1.4089793427096708e-05 
-4.207914698461934e-06 
-3.35226842751446e-05 
-9.95396763765477e-05 
-0.00023836730070669887 
-0.0004638280895354896 
-0.0006072370484764278 
0.00022418513552135977 
0.0051487944295214305 
0.023022425543538283 
0.07505371125641025 
0.20252725758591605 
0.4561390719097136 
0.7919247515489668 
0.5760210928215955 
-1.8149501701239825 
-7.3348194976997885 
-10.851028381121267 
4.264322228664241e-11 
3.4013680760835996e-11 
1.9205970147595508e-11 
8.325784506268974e-12 
9.841016890277388e-13 
-2.0694557179012918e-12 
-2.476241434123949e-12 
-4.336087044976011e-12 
-8.414602348238986e-12 
-2.2355450823852152e-11 
-3.4992453379345534e-11 
-2.76525469189437e-11 
-2.814637412029697e-11 
-4.9473314334136376e-11 
-7.387335188013822e-11 
-8.888267899465063e-11 
-8.786216199041519e-11 
-7.082467945451754e-11 
-5.0887738467508825e-11 
-6.944667063635279e-11 
-9.697043168443997e-11 
-8.419842600915217e-11 
-6.933831286914938e-11 
-7.299760795831389e-11 
-5.31725774521874e-11 
-4.9187320882992935e-12 
2.3817836591888408e-11 
2.049249658853114e-11 
5.815337100756324e-11 
1.163907858980906e-10 
8.816580798765017e-11 
5.67359492720243e-11 
6.657696616230169e-11 
-6.986994971234509 
-5.10665188710445 
-2.0587962634412698 
-0.4487221612752901 
0.06101377084483772 
0.10991830607978059 
0.06861299991188474 
0.03210665984035366 
0.012529494988346102 
0.004101392300009721 
0.0010425676897387604 
0.00012858661628278867 
-6.418091734516906e-05 
-6.485324353988631e-05 
-3.631232231349202e-05 
-1.4089889479151907e-05 
4.207822771995495e-06 
3.352258492927973e-05 
9.953958964548093e-05 
0.0002383672257462166 
0.00046382799522604046 
0.0006072369727441185 
-0.0002241851718940424 
-0.005148794459616468 
-0.023022425601773477 
-0.07505371131295169 
-0.20252725758452117 
-0.45613907189665515 
-0.7919247515386862 
-0.5760210927738334 
1.814950170156008 
7.334819497681774 
10.851028381084808 
-13.297839030106644 
-9.15352611373551 
-2.9271268462551916 
-0.38547911471000873 
0.12811564365319583 
0.14943870322014874 
0.0861962763044204 
0.03887192912539206 
0.014724004630075171 
0.004652834985009235 
0.0011069963526963988 
9.213305521171833e-05 
-9.966032867936292e-05 
-8.467452848037738e-05 
-4.5205929353642205e-05 
-1.739757938423736e-05 
4.238537179901414e-06 
3.8731962398230735e-05 
0.00011852420953673004 
0.00029235867307164654 
0.0005932489881885772 
0.0008610078907622665 
0.00011509465797132634 
-0.005236752123430222 
-0.025718000992291934 
-0.08733046743018491 
-0.24317570997288307 
-0.572240237534297 
-1.0803900208100892 
-1.3106103165443796 
1.9075404948304437 
13.881694645682138 
22.696755415173122 
-17.792933017682117 
-10.264243827586242 
-1.5450787577498772 
-0.12025125133226311 
0.11691827871730709 
0.09427789528687924 
0.049930587816405136 
0.021423703685499618 
0.0077784662479984945 
0.0023267248225522508 
0.0004918271940539398 
2.26865391539377e-06 
-7.172445930336835e-05 
-5.139250821173391e-05 
-2.5876013424408484e-05 
-9.852051405800921e-06 
1.6834255234243756e-06 
1.994104694347243e-05 
6.383626806183429e-05 
0.0001640856841618188 
0.00035132921166791675 
0.0005708631762857408 
0.0003586654761562613 
-0.00212623453896299 
-0.01253571443379542 
-0.04542327905900123 
-0.13253998966864344 
-0.3284223006381666 
-0.6972662927073916 
-1.0926602080190513 
-0.31989279159717565 
17.981068507358714 
35.34929725019029 
-19.420838272174933 
-9.77699939933467 
-0.18547233772380878 
-0.06329321803747234 
0.08355162675155725 
0.04405780859775632 
0.022702572603634508 
0.009024611997801912 
0.0031426497208713045 
0.0008661653478725384 
0.00014996545132817118 
-2.3346072453023226e-05 
-3.880185658999835e-05 
-2.416430641005718e-05 
-1.1456487897021361e-05 
-4.311092851594367e-06 
3.8813999481135397e-07 
7.757319735901547e-06 
2.633594135659223e-05 
7.10895068039008e-05 
0.0001611747968581767 
0.00029045709659669683 
0.00029868005111666207 
-0.0005175746842951412 
-0.004524860147000709 
-0.017770033863968138 
-0.05616776287494929 
-0.1410644469641653 
-0.37015613930849156 
-0.4994566838191581 
-1.9440019147379282 
19.137488051318186 
41.70682355755345 
</DataArray>
<DataArray type="Float64" Name="Nodal_sigma_xy" NumberOfComponents="1" format="ascii" >
-75.13704859740268 
-80.2230715859841 
-85.76374827422649 
-86.1782414958306 
-86.05710467187181 
-85.92709454043569 
-85.85492534394119 
-85.82261745685332 
-85.81037581494925 
-85.8064950157619 
-85.80556493531415 
-85.80548334438122 
-85.8055640263217 
-85.80563355210424 
-85.80567108618732 
-85.8056873462065 
-85.80569155996591 
-85.80568390215723 
-85.80565027095443 
-85.80555149181718 
-85.80530939466357 
-85.80482023360749 
-85.80411672746793 
-85.80405208092526 
-85.8084664978422 
-85.82992266053947 
-85.90260189661576 
-86.10637523233964 
-86.60632826234601 
-87.65827850367907 
-89.41804520927732 
-83.63086628534488 
-76.78437291464269 
-148.4744754958716 
-150.81837399608844 
-153.90075019131092 
-154.70488352461035 
-154.72104275850515 
-154.62636410026096 
-154.55673582057807 
-154.52167564860935 
-154.50717542055287 
-154.50211397775416 
-154.50068375059934 
-154.50042317697768 
-154.50045141832555 
-154.5005103828638 
-154.50054812806556 
-154.5005657137209 
-154.5005696743433 
-154.50055876621693 
-154.50051698592975 
-154.50040420167397 
-154.50015142211657 
-154.49970592505684 
-154.49928241503207 
-154.5002583610214 
-154.50775294732847 
-154.5369011217535 
-154.62541607997508 
-154.8516495256254 
-155.3321175097119 
-156.1045573546516 
-156.23216560933915 
-152.51056439552198 
-149.11382458551537 
-270.6443899496122 
-269.3984935985689 
-268.4499260844748 
-268.87744750231695 
-269.024228550864 
-269.03216350760266 
-269.01519451969665 
-269.00236553449304 
-268.9959014131588 
-268.9932410407308 
-268.9923184185123 
-268.99206029680596 
-268.9920146493349 
-268.99202073129266 
-268.99203176873647 
-268.9920381689163 
-268.99203904501826 
-268.99203258695866 
-268.9920122579514 
-268.99196557188895 
-268.99188215452136 
-268.9917991905215 
-268.9919647360372 
-268.993311251026 
-268.9986166226795 
-269.01483987202727 
-269.05630021545227 
-269.14237518542575 
-269.25690301804264 
-269.15176688511195 
-268.03106894877953 
-268.65825888249066 
-270.2431648562239 
-343.7130245024251 
-341.3691260022171 
-338.28674980701 
-337.48261647372027 
-337.4664572398329 
-337.5611358980811 
-337.6307641777581 
-337.66582434973066 
-337.68032457780305 
-337.68538602061744 
-337.6868162478013 
-337.68707682139745 
-337.6870485800157 
-337.68698961549126 
-337.6869518703213 
-337.6869342847929 
-337.68693032429445 
-337.6869412325252 
-337.68698301290476 
-337.68709579723634 
-337.68734857693954 
-337.68779407408135 
-337.6882175842019 
-337.68724163830325 
-337.6797470518774 
-337.650598877381 
-337.56208391918744 
-337.3358504735578 
-336.8553824896528 
-336.0829426449746 
-335.95533439041384 
-339.67693560423436 
-343.07367541423025 
-367.94917149996996 
-365.35494121349245 
-361.7113995534676 
-360.4418634961971 
-360.2694382230753 
-360.38357844104127 
-360.48968561333623 
-360.5476514708377 
-360.57282135544244 
-360.5820228995227 
-360.5847982244635 
-360.58539605875495 
-360.58540667169524 
-360.5853249820266 
-360.58526537312156 
-360.5852363129942 
-360.5852303472788 
-360.5852509214102 
-360.5853252108152 
-360.5855173622345 