<?xml version="1.0"?>
<VTKFile type="UnstructuredGrid" version="0.1" byte_order="LittleEndian" compressor="vtkZLibDataCompressor">
<UnstructuredGrid>
<Piece NumberOfPoints="297" NumberOfCells="256">
<PointData>
<DataArray type="Float64" Name="displacement" NumberOfComponents="3" format="ascii" >
0.0 -0.0018  0.
-0.00288092992738 -0.00242115100263  0.
-0.00567588038441 -0.0037713061973  0.
-0.00837912593898 -0.00581094503408  0.
-0.0109901294958 -0.00851585821309  0.
-0.0135091903184 -0.0118621733459  0.
-0.0159364962033 -0.01582679301  0.
-0.0182721471467 -0.020386759741  0.
-0.0205161846945 -0.0255191715336  0.
-0.022668623973 -0.0312011346852  0.
-0.0247294694616 -0.0374097550105  0.
-0.0266987221001 -0.0441221363944  0.
-0.028576381885 -0.0513153814863  0.
-0.0303624486743 -0.0589665923349  0.
-0.0320569223676 -0.067052870749  0.
-0.0336598029145 -0.0755513184558  0.
-0.0351710902937 -0.0844390371588  0.
-0.0365907844995 -0.0936931285541  0.
-0.0379188855401 -0.10329069433  0.
-0.0391553934557 -0.113208836167  0.
-0.0403003083708 -0.123424655756  0.
-0.0413536306051 -0.133915254897  0.
-0.0423153608459 -0.144657735851  0.
-0.0431855002199 -0.155629202327  0.
-0.0439640494686 -0.166806761837  0.
-0.0446510046037 -0.178167530405  0.
-0.0452463414394 -0.189688638182  0.
-0.045749972598 -0.201347231042  0.
-0.046161635199 -0.213120407172  0.
-0.0464806710538 -0.224985104315  0.
-0.0467054088541 -0.23691666366  0.
-0.0468332555392 -0.248889437545  0.
-0.0468653198583 -0.260829915599  0.
0.000188671875 -0.0010125  0.
-0.00198029946716 -0.00167600765894  0.
-0.00407461983838 -0.00304954711643  0.
-0.00610080370469 -0.00511365890511  0.
-0.00805852984356 -0.00784262662328  0.
-0.00994763268397 -0.0112130067108  0.
-0.0117680526378 -0.0152016712046  0.
-0.0135197768251 -0.0197856810147  0.
-0.0152028039067 -0.0249421352884  0.
-0.0168171346766 -0.0306481412183  0.
-0.0183627698854 -0.0368808045424  0.
-0.0198397099431 -0.0436172290526  0.
-0.0212479550297 -0.0508345173254  0.
-0.0225875052115 -0.0585097713753  0.
-0.0238583605088 -0.0666200929968  0.
-0.0250605209264 -0.0751425839126  0.
-0.0261939864648 -0.0840543458251  0.
-0.0272587571251 -0.0933324804305  0.
-0.0282548329095 -0.102954089418  0.
-0.0291822138224 -0.112896274467  0.
-0.0300408998658 -0.123136137262  0.
-0.0308308910193 -0.133650779575  0.
-0.0315521871725 -0.144417303583  0.
-0.0322047879351 -0.155412812769  0.
-0.0327886921918 -0.166614414187  0.
-0.0333038972352 -0.177999222924  0.
-0.0337503976774 -0.189544369216  0.
-0.0341281861521 -0.201226997156  0.
-0.0344372669736 -0.213024238256  0.
-0.0346777458328 -0.224912924908  0.
-0.03485014566 -0.236869286677  0.
-0.0349569877442 -0.248863284916  0.
-0.0349893363146 -0.260874697571  0.
0.000215625 -0.00045  0.
-0.00123148185487 -0.00113897402457  0.
-0.00262948646614 -0.0025340257227  0.
-0.003980092951 -0.00461571419983  0.
-0.00528492432422 -0.00736191054769  0.
-0.00654412356209 -0.0107493992087  0.
-0.00775764276085 -0.0147551929014  0.
-0.00892542238358 -0.019356352663  0.
-0.0100474285718 -0.0245299707284  0.
-0.0111236461056 -0.0302531468117  0.
-0.0121540692312 -0.0365029828168  0.
-0.0131386961341 -0.0432565808391  0.
-0.0140775263836 -0.0504910428397  0.
-0.014970559945 -0.0581834706459  0.
-0.0158177968575 -0.0663109660122  0.
-0.0166192371545 -0.0748506306605  0.
-0.0173748808526 -0.0837795663005  0.
-0.0180847279551 -0.0930748746373  0.
-0.0187487784488 -0.102713657375  0.
-0.019367032288 -0.112673016222  0.
-0.0199394893584 -0.122930052904  0.
-0.0204661494275 -0.133461869221  0.
-0.0209470121564 -0.144245567167  0.
-0.0213820774939 -0.155258249222  0.
-0.0217713474712 -0.166477018799  0.
-0.0221148321133 -0.177878980676  0.
-0.0224125655564 -0.189441239029  0.
-0.0226646432029 -0.201140889556  0.
-0.0228712931199 -0.212954965866  0.
-0.0230329448975 -0.224860354511  0.
-0.0231502103684 -0.236833092809  0.
-0.0232210954742 -0.248850398978  0.
-0.0232419676203 -0.260897999806  0.
0.000134765625 -0.0001125  0.
-0.000589097068528 -0.000815691268282  0.
-0.00128841025104 -0.00222385390619  0.
-0.00196392287818 -0.0043169413027  0.
-0.00261627433435 -0.00707355695297  0.
-0.00324580026738 -0.0104712997176  0.
-0.00385251703784 -0.014487338107  0.
-0.00443638781038 -0.0190987691595  0.
-0.00499738381797 -0.0242826766888  0.
-0.00553549039942 -0.0300161515025  0.
-0.00605070146796 -0.0362762900255  0.
-0.00654301489419 -0.043040191886  0.
-0.00701243007474 -0.050284958094  0.
-0.0074589468988 -0.0579876901735  0.
-0.00788256537772 -0.0661254898046  0.
-0.00828328553582 -0.0746754587029  0.
-0.00866110738747 -0.0836146985864  0.
-0.00901603093453 -0.0929203111732  0.
-0.00934805616217 -0.102569398189  0.
-0.00965718302401 -0.112539061379  0.
-0.00994341141452 -0.122806402524  0.
-0.0102067411479 -0.133348523419  0.
-0.0104471720501 -0.144142525705  0.
-0.0106647045404 -0.155165510167  0.
-0.0108593417877 -0.166394574591  0.
-0.0110310960719 -0.177806808082  0.
-0.0111800045629 -0.189379279282  0.
-0.0113061613742 -0.201089013785  0.
-0.0114097584243 -0.21291298849  0.
-0.0114910584899 -0.224828157134  0.
-0.0115498264472 -0.236812067006  0.
-0.0115849353069 -0.248844609514  0.
-0.0115953065875 -0.260909341825  0.
0.0 0.0  0.
8.13943997687e-17 -0.000707808021146  0.
1.68868829289e-16 -0.00212033055121  0.
2.60428723609e-16 -0.0042172977132  0.
3.53098547593e-16 -0.00697745553637  0.
4.47420179016e-16 -0.0103786121913  0.
5.41055511675e-16 -0.0143980608972  0.
6.34017923113e-16 -0.019012911268  0.
7.27267648685e-16 -0.0242002465796  0.
8.21071277069e-16 -0.0299371534419  0.
9.14136435565e-16 -0.0362007258467  0.
1.01149598336e-15 -0.0429680622387  0.
1.10414915486e-15 -0.0502162631689  0.
1.19426631195e-15 -0.0579224300083  0.
1.28500823284e-15 -0.0660636643982  0.
1.37775699114e-15 -0.0746170680489  0.
1.46373484094e-15 -0.083559742682  0.
1.55727381685e-15 -0.0928687900217  0.
1.64144089166e-15 -0.102521311803  0.
1.71979448601e-15 -0.11249440979  0.
1.79082498619e-15 -0.122765185783  0.
1.87168438678e-15 -0.133310741567  0.
1.97475640695e-15 -0.144108178585  0.
2.05712467105e-15 -0.155134596768  0.
2.12543299018e-15 -0.16636709111  0.
2.17978346443e-15 -0.177782743402  0.
2.22023256752e-15 -0.189358604981  0.
2.26866857619e-15 -0.201071675218  0.
2.2909267003e-15 -0.212898897656  0.
2.29987652773e-15 -0.224817393884  0.
2.31412151632e-15 -0.236805269567  0.
2.31091313677e-15 -0.248842841243  0.
2.32078107168e-15 -0.260912822  0.
-0.000134765625 -0.0001125  0.
0.000589097068528 -0.000815691268282  0.
0.00128841025104 -0.00222385390619  0.
0.00196392287818 -0.0043169413027  0.
0.00261627433435 -0.00707355695297  0.
0.00324580026738 -0.0104712997176  0.
0.00385251703784 -0.014487338107  0.
0.00443638781038 -0.0190987691595  0.
0.00499738381798 -0.0242826766888  0.
0.00553549039942 -0.0300161515025  0.
0.00605070146796 -0.0362762900255  0.
0.0065430148942 -0.043040191886  0.
0.00701243007474 -0.050284958094  0.
0.00745894689881 -0.0579876901735  0.
0.00788256537772 -0.0661254898046  0.
0.00828328553582 -0.0746754587029  0.
0.00866110738747 -0.0836146985864  0.
0.00901603093454 -0.0929203111732  0.
0.00934805616217 -0.102569398189  0.
0.00965718302402 -0.112539061379  0.
0.00994341141453 -0.122806402524  0.
0.0102067411479 -0.133348523419  0.
0.0104471720501 -0.144142525705  0.
0.0106647045404 -0.155165510167  0.
0.0108593417877 -0.166394574591  0.
0.0110310960719 -0.177806808082  0.
0.0111800045629 -0.189379279282  0.
0.0113061613742 -0.201089013785  0.
0.0114097584243 -0.21291298849  0.
0.0114910584899 -0.224828157134  0.
0.0115498264472 -0.236812067006  0.
0.0115849353069 -0.248844609514  0.
0.0115953065875 -0.260909341825  0.
-0.000215625 -0.00045  0.
0.00123148185487 -0.00113897402457  0.
0.00262948646614 -0.0025340257227  0.
0.003980092951 -0.00461571419983  0.
0.00528492432422 -0.00736191054769  0.
0.00654412356209 -0.0107493992087  0.
0.00775764276085 -0.0147551929014  0.
0.00892542238359 -0.019356352663  0.
0.0100474285718 -0.0245299707284  0.
0.0111236461056 -0.0302531468117  0.
0.0121540692312 -0.0365029828168  0.
0.0131386961341 -0.0432565808391  0.
0.0140775263836 -0.0504910428397  0.
0.014970559945 -0.0581834706459  0.
0.0158177968576 -0.0663109660122  0.
0.0166192371545 -0.0748506306605  0.
0.0173748808526 -0.0837795663005  0.
0.0180847279551 -0.0930748746373  0.
0.0187487784488 -0.102713657375  0.
0.019367032288 -0.112673016222  0.
0.0199394893584 -0.122930052904  0.
0.0204661494275 -0.133461869221  0.
0.0209470121564 -0.144245567167  0.
0.0213820774939 -0.155258249222  0.
0.0217713474712 -0.166477018799  0.
0.0221148321133 -0.177878980676  0.
0.0224125655564 -0.189441239029  0.
0.0226646432029 -0.201140889556  0.
0.02287129312 -0.212954965866  0.
0.0230329448975 -0.224860354511  0.
0.0231502103684 -0.236833092809  0.
0.0232210954742 -0.248850398978  0.
0.0232419676203 -0.260897999806  0.
-0.000188671875 -0.0010125  0.
0.00198029946716 -0.00167600765894  0.
0.00407461983838 -0.00304954711643  0.
0.00610080370469 -0.00511365890511  0.
0.00805852984356 -0.00784262662328  0.
0.00994763268397 -0.0112130067108  0.
0.0117680526378 -0.0152016712046  0.
0.0135197768251 -0.0197856810147  0.
0.0152028039067 -0.0249421352884  0.
0.0168171346766 -0.0306481412183  0.
0.0183627698854 -0.0368808045424  0.
0.0198397099431 -0.0436172290526  0.
0.0212479550297 -0.0508345173254  0.
0.0225875052115 -0.0585097713753  0.
0.0238583605088 -0.0666200929968  0.
0.0250605209264 -0.0751425839126  0.
0.0261939864648 -0.0840543458251  0.
0.0272587571251 -0.0933324804305  0.
0.0282548329095 -0.102954089418  0.
0.0291822138225 -0.112896274467  0.
0.0300408998658 -0.123136137262  0.
0.0308308910193 -0.133650779575  0.
0.0315521871725 -0.144417303583  0.
0.0322047879351 -0.155412812769  0.
0.0327886921918 -0.166614414187  0.
0.0333038972352 -0.177999222924  0.
0.0337503976774 -0.189544369216  0.
0.0341281861521 -0.201226997156  0.
0.0344372669736 -0.213024238256  0.
0.0346777458328 -0.224912924908  0.
0.03485014566 -0.236869286677  0.
0.0349569877442 -0.248863284916  0.
0.0349893363147 -0.260874697571  0.
0.0 -0.0018  0.
0.00288092992738 -0.00242115100263  0.
0.00567588038441 -0.0037713061973  0.
0.00837912593898 -0.00581094503408  0.
0.0109901294958 -0.00851585821309  0.
0.0135091903184 -0.0118621733459  0.
0.0159364962033 -0.01582679301  0.
0.0182721471467 -0.020386759741  0.
0.0205161846945 -0.0255191715336  0.
0.022668623973 -0.0312011346852  0.
0.0247294694616 -0.0374097550105  0.
0.0266987221001 -0.0441221363944  0.
0.028576381885 -0.0513153814863  0.
0.0303624486743 -0.0589665923349  0.
0.0320569223676 -0.067052870749  0.
0.0336598029145 -0.0755513184558  0.
0.0351710902937 -0.0844390371588  0.
0.0365907844995 -0.0936931285541  0.
0.0379188855401 -0.10329069433  0.
0.0391553934557 -0.113208836167  0.
0.0403003083708 -0.123424655756  0.
0.0413536306051 -0.133915254897  0.
0.0423153608459 -0.144657735851  0.
0.0431855002199 -0.155629202327  0.
0.0439640494686 -0.166806761837  0.
0.0446510046037 -0.178167530405  0.
0.0452463414394 -0.189688638182  0.
0.045749972598 -0.201347231042  0.
0.046161635199 -0.213120407172  0.
0.0464806710538 -0.224985104315  0.
0.0467054088541 -0.23691666366  0.
0.0468332555392 -0.248889437545  0.
0.0468653198583 -0.260829915599  0.
</DataArray>
<DataArray type="Float64" Name="Nodal_sigma_xx" NumberOfComponents="1" format="ascii" >
-5044.07501806 
-4966.65294908 
-4809.29448286 
-4649.06057031 
-4488.47174486 
-4327.95796825 
-4167.55729546 
-4007.22258738 
-3846.91828171 
-3686.62563275 
-3526.33674177 
-3366.04877686 
-3205.76090967 
-3045.47297364 
-2885.18497407 
-2724.89693974 
-2564.60889197 
-2404.32084786 
-2244.03283472 
-2083.74491483 
-1923.45722146 
-1763.169978 
-1602.88335491 
-1442.59666578 
-1282.30548447 
-1121.99339716 
-961.611605311 
-801.03920854 
-640.018021382 
-478.176333796 
-315.329997789 
-155.29207584 
-76.9249367439 
-4327.65185338 
-4258.81454618 
-4121.49037207 
-3984.34066958 
-3846.97331276 
-3709.56096655 
-3572.15096217 
-3434.75063707 
-3297.35639639 
-3159.96504398 
-3022.57481968 
-2885.1849668 
-2747.79520896 
-2610.40546329 
-2473.01571208 
-2335.62595533 
-2198.23619627 
-2060.84643897 
-1923.45669011 
-1786.06696244 
-1648.67727604 
-1511.28764286 
-1373.89798582 
-1236.50785621 
-1099.11564011 
-961.716629789 
-824.29946746 
-686.841452173 
-549.320698027 
-411.784271061 
-274.708753375 
-137.90671189 
-69.421592288 
-2889.534521 
-2841.42657259 
-2747.25992181 
-2655.54680743 
-2564.23033236 
-2472.84542437 
-2381.35819065 
-2289.80907932 
-2198.23138836 
-2106.64263271 
-2015.05028665 
-1923.45704162 
-1831.86369381 
-1740.27040708 
-1648.67717916 
-1557.08398376 
-1465.49080095 
-1373.89761456 
-1282.30439868 
-1190.71109464 
-1099.11757791 
-1007.52364288 
-915.92914483 
-824.334775632 
-732.744802182 
-641.174908629 
-549.671146886 
-458.347899104 
-367.440929377 
-277.302118465 
-187.927232617 
-96.2108330633 
-49.0410982385 
-1445.32002247 
-1421.33380899 
-1373.94803998 
-1327.65688953 
-1281.9646515 
-1236.33393639 
-1190.63906077 
-1144.88947482 
-1099.11098387 
-1053.32022026 
-1007.52506727 
-961.728630061 
-915.931935779 
-870.135250514 
-824.33860999 
-778.541999416 
-732.745400782 
-686.948796455 
-641.152157809 
-595.355425073 
-549.558485975 
-503.761199476 
-457.963645607 
-412.167152868 
-366.377513853 
-320.613392764 
-274.924665353 
-229.421979888 
-184.286404094 
-139.590517234 
-94.5205377409 
-47.87982897 
-24.0626621624 
1.75987224793e-10 
1.796252036e-10 
1.85508497452e-10 
1.87412751984e-10 
1.87668547369e-10 
1.87583282241e-10 
1.86929582924e-10 
1.85821136256e-10 
1.83064230441e-10 
1.78459913514e-10 
1.78289383257e-10 
1.79596781891e-10 
1.75049308382e-10 
1.67545977092e-10 
1.58507873493e-10 
1.48958179125e-10 
1.52354573402e-10 
1.57086788022e-10 
1.48389744936e-10 
1.32786226459e-10 
1.27798216454e-10 
1.47224454849e-10 
1.50507162289e-10 
1.26746613205e-10 
1.11867848318e-10 
9.92557147583e-11 
9.0963681032e-11 
7.98685562131e-11 
5.50706147351e-11 
5.2594373301e-11 
3.94617671873e-11 
2.72128986012e-11 
3.68860497701e-11 
1445.32002247 
1421.33380899 
1373.94803998 
1327.65688953 
1281.96465151 
1236.33393639 
1190.63906078 
1144.88947482 
1099.11098387 
1053.32022026 
1007.52506728 
961.728630061 
915.931935779 
870.135250514 
824.33860999 
778.541999417 
732.745400782 
686.948796455 
641.152157809 
595.355425073 
549.558485975 
503.761199477 
457.963645608 
412.167152868 
366.377513853 
320.613392764 
274.924665353 
229.421979888 
184.286404094 
139.590517234 
94.5205377409 
47.87982897 
24.0626621625 
2889.534521 
2841.42657259 
2747.25992181 
2655.54680743 
2564.23033236 
2472.84542437 
2381.35819066 
2289.80907932 
2198.23138836 
2106.64263271 
2015.05028665 
1923.45704162 
1831.86369381 
1740.27040708 
1648.67717916 
1557.08398376 
1465.49080095 
1373.89761456 
1282.30439868 
1190.71109464 
1099.11757791 
1007.52364288 
915.92914483 
824.334775632 
732.744802182 
641.174908629 
549.671146886 
458.347899104 
367.440929377 
277.302118465 
187.927232617 
96.2108330633 
49.0410982385 
4327.65185338 
4258.81454618 
4121.49037207 
3984.34066958 
3846.97331276 
3709.56096655 
3572.15096217 
3434.75063707 
3297.35639639 
3159.96504398 
3022.57481968 
2885.1849668 
2747.79520897 
2610.40546329 
2473.01571208 
2335.62595533 
2198.23619627 
2060.84643897 
1923.45669011 
1786.06696244 
1648.67727604 
1511.28764286 
1373.89798582 
1236.50785621 
1099.11564011 
961.716629789 
824.29946746 
686.841452173 
549.320698027 
411.784271061 
274.708753375 
137.90671189 
69.421592288 
5044.07501806 
4966.65294908 
4809.29448286 
4649.06057031 
4488.47174486 
4327.95796825 
4167.55729546 
4007.22258738 
3846.91828171 
3686.62563275 
3526.33674177 
3366.04877686 
3205.76090967 
3045.47297364 
2885.18497407 
2724.89693974 
2564.60889197 
2404.32084786 
2244.03283472 
2083.74491483 
1923.45722146 
1763.169978 
1602.88335491 
1442.59666578 
1282.30548447 
1121.99339716 
961.611605311 
801.03920854 
640.018021382 
478.176333796 
315.329997789 
155.29207584 
76.924936744 
</DataArray>
<DataArray type="Float64" Name="Nodal_sigma_yy" NumberOfComponents="1" format="ascii" >
19.4208382722 
9.77699939937 
0.185472337726 
0.0632932180358 
-0.0835516267525 
-0.0440578085992 
-0.0227025726124 
-0.00902461199826 
-0.00314264971917 
-0.000866165358332 
-0.000149965467415 
2.33460500851e-05 
3.88018501667e-05 
2.41642910908e-05 
1.14564474814e-05 
4.31108483667e-06 
-3.88090683145e-07 
-7.75725243329e-06 
-2.63359364112e-05 
-7.1089516581e-05 
-0.000161174775826 
-0.000290457087203 
-0.000298680092683 
0.000517574591285 
0.00452486012088 
0.0177700338897 
0.0561677629087 
0.14106444692 
0.370156139215 
0.499456683753 
1.94400191472 
-19.1374880512 
-41.7068235574 
17.7929330178 
10.2642438276 
1.54507875776 
0.120251251334 
-0.116918278721 
-0.0942778952939 
-0.0499305878237 
-0.0214237036896 
-0.00777846625508 
-0.00232672482504 
-0.000491827188824 
-2.26867257425e-06 
7.17244109723e-05 
5.13924434955e-05 
2.58759491345e-05 
9.85201947401e-06 
-1.68342991458e-06 
-1.9941060458e-05 
-6.38363235907e-05 
-0.000164085764339 
-0.000351329270245 
-0.000570863221 
-0.00035866557014 
0.00212623440448 
0.0125357143837 
0.0454232790349 
0.13253998958 
0.328422300574 
0.6972662927 
1.09266020807 
0.319892791736 
-17.9810685071 
-35.34929725 
13.2978390302 
9.1535261138 
2.92712684628 
0.38547911472 
-0.128115643654 
-0.149438703227 
-0.086196276313 
-0.0388719291356 
-0.0147240046402 
-0.00465283498 
-0.00110699634237 
-9.21330767838e-05 
9.96602730368e-05 
8.46744677787e-05 
4.52058782656e-05 
1.73975442905e-05 
-4.23857029119e-06 
-3.87320380852e-05 
-0.000118524303382 
-0.000292358753875 
-0.000593249054621 
-0.000861007931707 
-0.000115094698206 
0.00523675207835 
0.0257180009502 
0.0873304673416 
0.243175709845 
0.572240237485 
1.0803900208 
1.31061031656 
-1.90754049474 
-13.8816946456 
-22.6967554151 
6.98699497132 
5.10665188717 
2.05879626348 
0.448722161291 
-0.0610137708412 
-0.109918306083 
-0.06861299992 
-0.032106659851 
-0.012529494999 
-0.0041013923201 
-0.00104256772768 
-0.000128586658033 
6.41808786757e-05 
6.48531904215e-05 
3.63122414342e-05 
1.40897934271e-05 
-4.20791469846e-06 
-3.35226842751e-05 
-9.95396763765e-05 
-0.000238367300707 
-0.000463828089535 
-0.000607237048476 
0.000224185135521 
0.00514879442952 
0.0230224255435 
0.0750537112564 
0.202527257586 
0.45613907191 
0.791924751549 
0.576021092822 
-1.81495017012 
-7.3348194977 
-10.8510283811 
4.26432222866e-11 
3.40136807608e-11 
1.92059701476e-11 
8.32578450627e-12 
9.84101689028e-13 
-2.0694557179e-12 
-2.47624143412e-12 
-4.33608704498e-12 
-8.41460234824e-12 
-2.23554508239e-11 
-3.49924533793e-11 
-2.76525469189e-11 
-2.81463741203e-11 
-4.94733143341e-11 
-7.38733518801e-11 
-8.88826789947e-11 
-8.78621619904e-11 
-7.08246794545e-11 
-5.08877384675e-11 
-6.94466706364e-11 
-9.69704316844e-11 
-8.41984260092e-11 
-6.93383128691e-11 
-7.29976079583e-11 
-5.31725774522e-11 
-4.9187320883e-12 
2.38178365919e-11 
2.04924965885e-11 
5.81533710076e-11 
1.16390785898e-10 
8.81658079877e-11 
5.6735949272e-11 
6.65769661623e-11 
-6.98699497123 
-5.1066518871 
-2.05879626344 
-0.448722161275 
0.0610137708448 
0.10991830608 
0.0686129999119 
0.0321066598404 
0.0125294949883 
0.00410139230001 
0.00104256768974 
0.000128586616283 
-6.41809173452e-05 
-6.48532435399e-05 
-3.63123223135e-05 
-1.40898894792e-05 
4.207822772e-06 
3.35225849293e-05 
9.95395896455e-05 
0.000238367225746 
0.000463827995226 
0.000607236972744 
-0.000224185171894 
-0.00514879445962 
-0.0230224256018 
-0.075053711313 
-0.202527257585 
-0.456139071897 
-0.791924751539 
-0.576021092774 
1.81495017016 
7.33481949768 
10.8510283811 
-13.2978390301 
-9.15352611374 
-2.92712684626 
-0.38547911471 
0.128115643653 
0.14943870322 
0.0861962763044 
0.0388719291254 
0.0147240046301 
0.00465283498501 
0.0011069963527 
9.21330552117e-05 
-9.96603286794e-05 
-8.46745284804e-05 
-4.52059293536e-05 
-1.73975793842e-05 
4.2385371799e-06 
3.87319623982e-05 
0.000118524209537 
0.000292358673072 
0.000593248988189 
0.000861007890762 
0.000115094657971 
-0.00523675212343 
-0.0257180009923 
-0.0873304674302 
-0.243175709973 
-0.572240237534 
-1.08039002081 
-1.31061031654 
1.90754049483 
13.8816946457 
22.6967554152 
-17.7929330177 
-10.2642438276 
-1.54507875775 
-0.120251251332 
0.116918278717 
0.0942778952869 
0.0499305878164 
0.0214237036855 
0.007778466248 
0.00232672482255 
0.000491827194054 
2.26865391539e-06 
-7.17244593034e-05 
-5.13925082117e-05 
-2.58760134244e-05 
-9.8520514058e-06 
1.68342552342e-06 
1.99410469435e-05 
6.38362680618e-05 
0.000164085684162 
0.000351329211668 
0.000570863176286 
0.000358665476156 
-0.00212623453896 
-0.0125357144338 
-0.045423279059 
-0.132539989669 
-0.328422300638 
-0.697266292707 
-1.09266020802 
-0.319892791597 
17.9810685074 
35.3492972502 
-19.4208382722 
-9.77699939933 
-0.185472337724 
-0.0632932180375 
0.0835516267516 
0.0440578085978 
0.0227025726036 
0.0090246119978 
0.00314264972087 
0.000866165347873 
0.000149965451328 
-2.3346072453e-05 
-3.880185659e-05 
-2.41643064101e-05 
-1.1456487897e-05 
-4.31109285159e-06 
3.88139994811e-07 
7.7573197359e-06 
2.63359413566e-05 
7.10895068039e-05 
0.000161174796858 
0.000290457096597 
0.000298680051117 
-0.000517574684295 
-0.004524860147 
-0.017770033864 
-0.0561677628749 
-0.141064446964 
-0.370156139308 
-0.499456683819 
-1.94400191474 
19.1374880513 
41.7068235576 
</DataArray>
<DataArray type="Float64" Name="Nodal_sigma_xy" NumberOfComponents="1" format="ascii" >
-75.1370485974 
-80.223071586 
-85.7637482742 
-86.1782414958 
-86.0571046719 
-85.9270945404 
-85.8549253439 
-85.8226174569 
-85.8103758149 
-85.8064950158 
-85.8055649353 
-85.8054833444 
-85.8055640263 
-85.8056335521 
-85.8056710862 
-85.8056873462 
-85.80569156 
-85.8056839022 
-85.805650271 
-85.8055514918 
-85.8053093947 
-85.8048202336 
-85.8041167275 
-85.8040520809 
-85.8084664978 
-85.8299226605 
-85.9026018966 
-86.1063752323 
-86.6063282623 
-87.6582785037 
-89.4180452093 
-83.6308662853 
-76.7843729146 
-148.474475496 
-150.818373996 
-153.900750191 
-154.704883525 
-154.721042759 
-154.6263641 
-154.556735821 
-154.521675649 
-154.507175421 
-154.502113978 
-154.500683751 
-154.500423177 
-154.500451418 
-154.500510383 
-154.500548128 
-154.500565714 
-154.500569674 
-154.500558766 
-154.500516986 
-154.500404202 
-154.500151422 
-154.499705925 
-154.499282415 
-154.500258361 
-154.507752947 
-154.536901122 
-154.62541608 
-154.851649526 
-155.33211751 
-156.104557355 
-156.232165609 
-152.510564396 
-149.113824586 
-270.64438995 
-269.398493599 
-268.449926084 
-268.877447502 
-269.024228551 
-269.032163508 
-269.01519452 
-269.002365534 
-268.995901413 
-268.993241041 
-268.992318419 
-268.992060297 
-268.992014649 
-268.992020731 
-268.992031769 
-268.992038169 
-268.992039045 
-268.992032587 
-268.992012258 
-268.991965572 
-268.991882155 
-268.991799191 
-268.991964736 
-268.993311251 
-268.998616623 
-269.014839872 
-269.056300215 
-269.142375185 
-269.256903018 
-269.151766885 
-268.031068949 
-268.658258882 
-270.243164856 
-343.713024502 
-341.369126002 
-338.286749807 
-337.482616474 
-337.46645724 
-337.561135898 
-337.630764178 
-337.66582435 
-337.680324578 
-337.685386021 
-337.686816248 
-337.687076821 
-337.68704858 
-337.686989615 
-337.68695187 
-337.686934285 
-337.686930324 
-337.686941233 
-337.686983013 
-337.687095797 
-337.687348577 
-337.687794074 
-337.688217584 
-337.687241638 
-337.679747052 
-337.650598877 
-337.562083919 
-337.335850474 
-336.85538249 
-336.082942645 
-335.95533439 
-339.676935604 
-343.073675414 
-367.9491715 
-365.354941213 
-361.711399553 
-360.441863496 
-360.269438223 
-360.383578441 
-360.489685613 
-360.547651471 
-360.572821355 
-360.5820229 
-360.584798224 
-360.585396059 
-360.585406672 
-360.585324982 
-360.585265373 
-360.585236313 
-360.585230347 
-360.585250921 
-360.585325211 
-360.585517362 
-360.585926294 
-360.586581384 
-360.586953799 
-360.584325416 
-360.569300255 
-360.515397594 
-360.359797671 
-359.983874395 
-359.2548657 
-358.413187725 
-358.894816893 
-363.427615949 
-367.104297372 
-343.713024502 
-341.369126002 
-338.286749807 
-337.482616474 
-337.46645724 
-337.561135898 
-337.630764178 
-337.66582435 
-337.680324578 
-337.685386021 
-337.686816248 
-337.687076821 
-337.68704858 
-337.686989616 
-337.68695187 
-337.686934285 
-337.686930324 
-337.686941233 
-337.686983013 
-337.687095797 
-337.687348577 
-337.687794074 
-337.688217584 
-337.687241638 
-337.679747052 
-337.650598877 
-337.562083919 
-337.335850474 
-336.85538249 
-336.082942645 
-335.95533439 
-339.676935604 
-343.073675414 
-270.64438995 
-269.398493599 
-268.449926084 
-268.877447502 
-269.024228551 
-269.032163508 
-269.01519452 
-269.002365534 
-268.995901413 
-268.993241041 
-268.992318419 
-268.992060297 
-268.992014649 
-268.992020731 
-268.992031769 
-268.992038169 
-268.992039045 
-268.992032587 
-268.992012258 
-268.991965572 
-268.991882155 
-268.991799191 
-268.991964736 
-268.993311251 
-268.998616623 
-269.014839872 
-269.056300215 
-269.142375185 
-269.256903018 
-269.151766885 
-268.031068949 
-268.658258883 
-270.243164856 
-148.474475496 
-150.818373996 
-153.900750191 
-154.704883525 
-154.721042759 
-154.6263641 
-154.556735821 
-154.521675649 
-154.507175421 
-154.502113978 
-154.500683751 
-154.500423177 
-154.500451418 
-154.500510383 
-154.500548128 
-154.500565714 
-154.500569674 
-154.500558766 
-154.500516986 
-154.500404202 
-154.500151422 
-154.499705925 
-154.499282415 
-154.500258361 
-154.507752947 
-154.536901122 
-154.62541608 
-154.851649526 
-155.33211751 
-156.104557355 
-156.232165609 
-152.510564396 
-149.113824586 
-75.1370485975 
-80.223071586 
-85.7637482742 
-86.1782414958 
-86.0571046719 
-85.9270945404 
-85.8549253439 
-85.8226174569 
-85.810375815 
-85.8064950158 
-85.8055649353 
-85.8054833444 
-85.8055640263 
-85.8056335521 
-85.8056710862 
-85.8056873462 
-85.80569156 
-85.8056839022 
-85.805650271 
-85.8055514918 
-85.8053093947 
-85.8048202336 
-85.8041167275 
-85.8040520809 
-85.8084664978 
-85.8299226606 
-85.9026018966 
-86.1063752323 
-86.6063282624 
-87.6582785037 
-89.4180452093 
-83.6308662854 
-76.7843729147 
</DataArray>
</PointData>
<CellData>
</CellData>
<Points>
<DataArray type="Float64" Name="Points" NumberOfComponents="3" format="ascii">
0.0 -2.0 0.0
0.5 -2.0 0.0
1.0 -2.0 0.0
1.5 -2.0 0.0
2.0 -2.0 0.0
2.5 -2.0 0.0
3.0 -2.0 0.0
3.5 -2.0 0.0
4.0 -2.0 0.0
4.5 -2.0 0.0
5.0 -2.0 0.0
5.5 -2.0 0.0
6.0 -2.0 0.0
6.5 -2.0 0.0
7.0 -2.0 0.0
7.5 -2.0 0.0
8.0 -2.0 0.0
8.5 -2.0 0.0
9.0 -2.0 0.0
9.5 -2.0 0.0
10.0 -2.0 0.0
10.5 -2.0 0.0
11.0 -2.0 0.0
11.5 -2.0 0.0
12.0 -2.0 0.0
12.5 -2.0 0.0
13.0 -2.0 0.0
13.5 -2.0 0.0
14.0 -2.0 0.0
14.5 -2.0 0.0
15.0 -2.0 0.0
15.5 -2.0 0.0
16.0 -2.0 0.0
0.0 -1.5 0.0
0.5 -1.5 0.0
1.0 -1.5 0.0
1.5 -1.5 0.0
2.0 -1.5 0.0
2.5 -1.5 0.0
3.0 -1.5 0.0
3.5 -1.5 0.0
4.0 -1.5 0.0
4.5 -1.5 0.0
5.0 -1.5 0.0
5.5 -1.5 0.0
6.0 -1.5 0.0
6.5 -1.5 0.0
7.0 -1.5 0.0
7.5 -1.5 0.0
8.0 -1.5 0.0
8.5 -1.5 0.0
9.0 -1.5 0.0
9.5 -1.5 0.0
10.0 -1.5 0.0
10.5 -1.5 0.0
11.0 -1.5 0.0
11.5 -1.5 0.0
12.0 -1.5 0.0
12.5 -1.5 0.0
13.0 -1.5 0.0
13.5 -1.5 0.0
14.0 -1.5 0.0
14.5 -1.5 0.0
15.0 -1.5 0.0
15.5 -1.5 0.0
16.0 -1.5 0.0
0.0 -1.0 0.0
0.5 -1.0 0.0
1.0 -1.0 0.0
1.5 -1.0 0.0
2.0 -1.0 0.0
2.5 -1.0 0.0
3.0 -1.0 0.0
3.5 -1.0 0.0
4.0 -1.0 0.0
4.5 -1.0 0.0
5.0 -1.0 0.0
5.5 -1.0 0.0
6.0 -1.0 0.0
6.5 -1.0 0.0
7.0 -1.0 0.0
7.5 -1.0 0.0
8.0 -1.0 0.0
8.5 -1.0 0.0
9.0 -1.0 0.0
9.5 -1.0 0.0
10.0 -1.0 0.0
10.5 -1.0 0.0
11.0 -1.0 0.0
11.5 -1.0 0.0
12.0 -1.0 0.0
12.5 -1.0 0.0
13.0 -1.0 0.0
13.5 -1.0 0.0
14.0 -1.0 0.0
14.5 -1.0 0.0
15.0 -1.0 0.0
15.5 -1.0 0.0
16.0 -1.0 0.0
0.0 -0.5 0.0
0.5 -0.5 0.0
1.0 -0.5 0.0
1.5 -0.5 0.0
2.0 -0.5 0.0
2.5 -0.5 0.0
3.0 -0.5 0.0
3.5 -0.5 0.0
4.0 -0.5 0.0
4.5 -0.5 0.0
5.0 -0.5 0.0
5.5 -0.5 0.0
6.0 -0.5 0.0
6.5 -0.5 0.0
7.0 -0.5 0.0
7.5 -0.5 0.0
8.0 -0.5 0.0
8.5 -0.5 0.0
9.0 -0.5 0.0
9.5 -0.5 0.0
10.0 -0.5 0.0
10.5 -0.5 0.0
11.0 -0.5 0.0
11.5 -0.5 0.0
12.0 -0.5 0.0
12.5 -0.5 0.0
13.0 -0.5 0.0
13.5 -0.5 0.0
14.0 -0.5 0.0
14.5 -0.5 0.0
15.0 -0.5 0.0
15.5 -0.5 0.0
16.0 -0.5 0.0
0.0 0.0 0.0
0.5 0.0 0.0
1.0 0.0 0.0
1.5 0.0 0.0
2.0 0.0 0.0
2.5 0.0 0.0
3.0 0.0 0.0
3.5 0.0 0.0
4.0 0.0 0.0
4.5 0.0 0.0
5.0 0.0 0.0
5.5 0.0 0.0
6.0 0.0 0.0
6.5 0.0 0.0
7.0 0.0 0.0
7.5 0.0 0.0
8.0 0.0 0.0
8.5 0.0 0.0
9.0 0.0 0.0
9.5 0.0 0.0
10.0 0.0 0.0
10.5 0.0 0.0
11.0 0.0 0.0
11.5 0.0 0.0
12.0 0.0 0.0
12.5 0.0 0.0
13.0 0.0 0.0
13.5 0.0 0.0
14.0 0.0 0.0
14.5 0.0 0.0
15.0 0.0 0.0
15.5 0.0 0.0
16.0 0.0 0.0
0.0 0.5 0.0
0.5 0.5 0.0
1.0 0.5 0.0
1.5 0.5 0.0
2.0 0.5 0.0
2.5 0.5 0.0
3.0 0.5 0.0
3.5 0.5 0.0
4.0 0.5 0.0
4.5 0.5 0.0
5.0 0.5 0.0
5.5 0.5 0.0
6.0 0.5 0.0
6.5 0.5 0.0
7.0 0.5 0.0
7.5 0.5 0.0
8.0 0.5 0.0
8.5 0.5 0.0
9.0 0.5 0.0
9.5 0.5 0.0
10.0 0.5 0.0
10.5 0.5 0.0
11.0 0.5 0.0
11.5 0.5 0.0
12.0 0.5 0.0
12.5 0.5 0.0
13.0 0.5 0.0
13.5 0.5 0.0
14.0 0.5 0.0
14.5 0.5 0.0
15.0 0.5 0.0
15.5 0.5 0.0
16.0 0.5 0.0
0.0 1.0 0.0
0.5 1.0 0.0
1.0 1.0 0.0
1.5 1.0 0.0
2.0 1.0 0.0
2.5 1.0 0.0
3.0 1.0 0.0
3.5 1.0 0.0
4.0 1.0 0.0
4.5 1.0 0.0
5.0 1.0 0.0
5.5 1.0 0.0
6.0 1.0 0.0
6.5 1.0 0.0
7.0 1.0 0.0
7.5 1.0 0.0
8.0 1.0 0.0
8.5 1.0 0.0
9.0 1.0 0.0
9.5 1.0 0.0
10.0 1.0 0.0
10.5 1.0 0.0
11.0 1.0 0.0
11.5 1.0 0.0
12.0 1.0 0.0
12.5 1.0 0.0
13.0 1.0 0.0
13.5 1.0 0.0
14.0 1.0 0.0
14.5 1.0 0.0
15.0 1.0 0.0
15.5 1.0 0.0
16.0 1.0 0.0
0.0 1.5 0.0
0.5 1.5 0.0
1.0 1.5 0.0
1.5 1.5 0.0
2.0 1.5 0.0
2.5 1.5 0.0
3.0 1.5 0.0
3.5 1.5 0.0
4.0 1.5 0.0
4.5 1.5 0.0
5.0 1.5 0.0
5.5 1.5 0.0
6.0 1.5 0.0
6.5 1.5 0.0
7.0 1.5 0.0
7.5 1.5 0.0
8.0 1.5 0.0
8.5 1.5 0.0
9.0 1.5 0.0
9.5 1.5 0.0
10.0 1.5 0.0
10.5 1.5 0.0
11.0 1.5 0.0
11.5 1.5 0.0
12.0 1.5 0.0
12.5 1.5 0.0
13.0 1.5 0.0
13.5 1.5 0.0
14.0 1.5 0.0
14.5 1.5 0.0
15.0 1.5 0.0
15.5 1.5 0.0
16.0 1.5 0.0
0.0 2.0 0.0
0.5 2.0 0.0
1.0 2.0 0.0
1.5 2.0 0.0
2.0 2.0 0.0
2.5 2.0 0.0
3.0 2.0 0.0
3.5 2.0 0.0
4.0 2.0 0.0
4.5 2.0 0.0
5.0 2.0 0.0
5.5 2.0 0.0
6.0 2.0 0.0
6.5 2.0 0.0