<?xml version="1.0"?>
<VTKFile type="UnstructuredGrid" version="0.1" byte_order="LittleEndian" compressor="vtkZLibDataCompressor">
<UnstructuredGrid>
<Piece NumberOfPoints="297" NumberOfCells="256">
<PointData>
<DataArray type="Float64" Name="displacement" NumberOfComponents="3" format="ascii" >
0.0 -0.027  0.
-0.0432139489109 -0.0363172650396  0.
-0.0851382057664 -0.0565695929596  0.
-0.125686889085 -0.0871641755114  0.
-0.164851942437 -0.127737873197  0.
-0.202637854777 -0.177932600189  0.
-0.23904744305 -0.237401895151  0.
-0.274082207202 -0.305801396115  0.
-0.307742770418 -0.382787573005  0.
-0.340029359596 -0.468017020279  0.
-0.370942041925 -0.561146325159  0.
-0.400480831502 -0.661832045918  0.
-0.428645728275 -0.769730722297  0.
-0.455436730116 -0.884498885026  0.
-0.480853835516 -1.00579306124  0.
-0.504897043718 -1.13326977684  0.
-0.527566354406 -1.26658555739  0.
-0.548861767493 -1.40539692831  0.
-0.568783283102 -1.54936041496  0.
-0.587330901837 -1.69813254252  0.
-0.604504625563 -1.85136983635  0.
-0.620304459077 -2.00872882346  0.
-0.634730412689 -2.16986603776  0.
-0.647782503299 -2.33443803492  0.
-0.65946074203 -2.50210142756  0.
-0.669765069057 -2.67251295608  0.
-0.678695121592 -2.84532957273  0.
-0.686249588971 -3.02020846564  0.
-0.692424527986 -3.19680610758  0.
-0.697210065808 -3.37477656473  0.
-0.700581132813 -3.55374995491  0.
-0.702498833089 -3.73334156318  0.
-0.702979797876 -3.912448734  0.
0.002830078125 -0.0151875  0.
-0.0297044920074 -0.0251401148842  0.
-0.0611192975758 -0.0457432067466  0.
-0.0915120555705 -0.0767048835768  0.
-0.120877947654 -0.117639399349  0.
-0.14921449026 -0.168195100663  0.
-0.176520789568 -0.22802506807  0.
-0.202796652376 -0.296785215221  0.
-0.228042058601 -0.374132029327  0.
-0.25225702015 -0.459722118275  0.
-0.275441548281 -0.553212068137  0.
-0.297595649147 -0.65425843579  0.
-0.318719325446 -0.762517759883  0.
-0.338812578173 -0.877646570631  0.
-0.357875407633 -0.999301394955  0.
-0.375907813896 -1.12713875869  0.
-0.392909796974 -1.26081518738  0.
-0.408881356877 -1.39998720646  0.
-0.423822493644 -1.54431134127  0.
-0.437733207338 -1.69344411701  0.
-0.450613497988 -1.84704205893  0.
-0.462463365291 -2.00476169363  0.
-0.473282807588 -2.16625955375  0.
-0.483071819028 -2.33119219155  0.
-0.491830382878 -2.4992162128  0.
-0.499558458529 -2.66998834387  0.
-0.506255965162 -2.84316553824  0.
-0.511922792283 -3.01840495734  0.
-0.516559004604 -3.19536357385  0.
-0.520166187493 -3.37369387362  0.
-0.522752184901 -3.55303930016  0.
-0.524354816163 -3.73294927375  0.
-0.524840044721 -3.91312046357  0.
0.003234375 -0.00675  0.
-0.0184722278231 -0.0170846103686  0.
-0.0394422969922 -0.0380103858405  0.
-0.0597013942651 -0.0692357129976  0.
-0.0792738648635 -0.110428658216  0.
-0.0981618534316 -0.161240988131  0.
-0.116364641413 -0.221327893522  0.
-0.133881335754 -0.290345289946  0.
-0.150711428578 -0.367949560928  0.
-0.166854691584 -0.453797202177  0.
-0.182311038469 -0.547544742253  0.
-0.197080442011 -0.648848712588  0.
-0.211162895755 -0.757365642597  0.
-0.224558399175 -0.872752059691  0.
-0.237266952864 -0.994664490185  0.
-0.249288557318 -1.12275945991  0.
-0.26062321279 -1.25669349451  0.
-0.271270919328 -1.39612311956  0.
-0.281231676733 -1.54070486063  0.
-0.29050548432 -1.69009524333  0.
-0.299092340376 -1.84395079357  0.
-0.306992241412 -2.00192803832  0.
-0.314205182347 -2.16368350751  0.
-0.320731162409 -2.32887373834  0.
-0.326570212069 -2.49715528199  0.
-0.3317224817 -2.66818471015  0.
-0.336188483347 -2.84161858544  0.
-0.339969648044 -3.01711334334  0.
-0.3430693968 -3.19432448799  0.
-0.345494173463 -3.37290531767  0.
-0.347253155527 -3.55249639214  0.
-0.348316432114 -3.73275598467  0.
-0.348629514305 -3.9134699971  0.
0.002021484375 -0.0016875  0.
-0.00883645602794 -0.0122353690242  0.
-0.0193261537657 -0.033357808593  0.
-0.0294588431727 -0.0647541195406  0.
-0.0392441150153 -0.106103354295  0.
-0.0486870040108 -0.157069495764  0.
-0.0577877555677 -0.217310071605  0.
-0.0665458171559 -0.286481537394  0.
-0.0749607572698 -0.364240150333  0.
-0.0830323559915 -0.450242272538  0.
-0.0907605220196 -0.544144350384  0.
-0.0981452234131 -0.645602878291  0.
-0.105186451121 -0.754274371412  0.
-0.111884203482 -0.869815352604  0.
-0.118238480666 -0.991882347072  0.
-0.124249283038 -1.12013188055  0.
-0.129916610812 -1.2542204788  0.
-0.135240464018 -1.3938046676  0.
-0.140220842433 -1.53854097283  0.
-0.144857745361 -1.68808592069  0.
-0.149151171218 -1.84209603786  0.
-0.153101117219 -2.00022785129  0.
-0.156707580752 -2.16213788558  0.
-0.159970568107 -2.32748265251  0.
-0.162890126816 -2.49591861888  0.
-0.165466441079 -2.66710212124  0.
-0.167700068444 -2.84068918924  0.
-0.169592420613 -3.01633520679  0.
-0.171146376365 -3.19369482736  0.
-0.172365877349 -3.37242235702  0.
-0.173247396709 -3.5521810051  0.
-0.173774029604 -3.73266914272  0.
-0.173929598813 -3.91364012738  0.
0.0 0.0  0.
7.93121007908e-17 -0.0106171203172  0.
1.65632260037e-16 -0.0318049582683  0.
2.56687839229e-16 -0.0632594656981  0.
3.47643818889e-16 -0.104661833046  0.
4.38919075535e-16 -0.15567918287  0.
5.29999726612e-16 -0.215970913459  0.
6.21258971198e-16 -0.285193669021  0.
7.15324593225e-16 -0.363003698694  0.
8.10807757981e-16 -0.449057301629  0.
8.97277826876e-16 -0.543010887702  0.
9.86032502716e-16 -0.644520933581  0.
1.06759455212e-15 -0.753243947534  0.
1.16176397782e-15 -0.868836450127  0.
1.25933226826e-15 -0.990954965975  0.
1.35857485752e-15 -1.11925602074  0.
1.46443677866e-15 -1.25339614023  0.
1.54063048619e-15 -1.39303185033  0.
1.59539789159e-15 -1.53781967705  0.
1.63853642205e-15 -1.68741614685  0.
1.70887492772e-15 -1.84147778675  0.
1.85482972701e-15 -1.99966112351  0.
1.94117777709e-15 -2.16162267878  0.
2.0121273439e-15 -2.32701895153  0.
2.08783840565e-15 -2.49550636666  0.
2.13014153068e-15 -2.66674115103  0.
2.16317896575e-15 -2.84037907472  0.
2.27956060703e-15 -3.01607512828  0.
2.27914937177e-15 -3.19348346484  0.
2.24913686195e-15 -3.37226090827  0.
2.26396217447e-15 -3.55207904351  0.
2.28967264512e-15 -3.73264261865  0.
2.27198489545e-15 -3.91369233001  0.
-0.002021484375 -0.0016875  0.
0.00883645602794 -0.0122353690242  0.
0.0193261537657 -0.033357808593  0.
0.0294588431727 -0.0647541195406  0.
0.0392441150153 -0.106103354295  0.
0.0486870040108 -0.157069495764  0.
0.0577877555677 -0.217310071605  0.
0.0665458171559 -0.286481537394  0.
0.0749607572698 -0.364240150333  0.
0.0830323559915 -0.450242272538  0.
0.0907605220196 -0.544144350384  0.
0.0981452234131 -0.645602878291  0.
0.105186451121 -0.754274371412  0.
0.111884203482 -0.869815352604  0.
0.118238480666 -0.991882347072  0.
0.124249283038 -1.12013188055  0.
0.129916610812 -1.2542204788  0.
0.135240464018 -1.3938046676  0.
0.140220842433 -1.53854097283  0.
0.144857745361 -1.68808592069  0.
0.149151171218 -1.84209603786  0.
0.153101117219 -2.00022785129  0.
0.156707580752 -2.16213788558  0.
0.159970568107 -2.32748265251  0.
0.162890126816 -2.49591861888  0.
0.165466441079 -2.66710212124  0.
0.167700068444 -2.84068918924  0.
0.169592420613 -3.01633520679  0.
0.171146376365 -3.19369482736  0.
0.172365877349 -3.37242235702  0.
0.173247396709 -3.5521810051  0.
0.173774029604 -3.73266914272  0.
0.173929598813 -3.91364012738  0.
-0.003234375 -0.00675  0.
0.0184722278231 -0.0170846103686  0.
0.0394422969922 -0.0380103858405  0.
0.0597013942651 -0.0692357129976  0.
0.0792738648635 -0.110428658216  0.
0.0981618534316 -0.161240988131  0.
0.116364641413 -0.221327893522  0.
0.133881335754 -0.290345289946  0.
0.150711428578 -0.367949560928  0.
0.166854691584 -0.453797202177  0.
0.182311038469 -0.547544742253  0.
0.197080442011 -0.648848712588  0.
0.211162895755 -0.757365642597  0.
0.224558399175 -0.872752059691  0.
0.237266952864 -0.994664490185  0.
0.249288557318 -1.12275945991  0.
0.26062321279 -1.25669349451  0.
0.271270919328 -1.39612311956  0.
0.281231676733 -1.54070486063  0.
0.29050548432 -1.69009524333  0.
0.299092340376 -1.84395079357  0.
0.306992241412 -2.00192803832  0.
0.314205182347 -2.16368350751  0.
0.320731162409 -2.32887373834  0.
0.326570212069 -2.49715528199  0.
0.3317224817 -2.66818471015  0.
0.336188483347 -2.84161858544  0.
0.339969648044 -3.01711334334  0.
0.3430693968 -3.19432448799  0.
0.345494173463 -3.37290531767  0.
0.347253155527 -3.55249639214  0.
0.348316432114 -3.73275598467  0.
0.348629514305 -3.9134699971  0.
-0.002830078125 -0.0151875  0.
0.0297044920074 -0.0251401148842  0.
0.0611192975758 -0.0457432067466  0.
0.0915120555705 -0.0767048835768  0.
0.120877947654 -0.117639399349  0.
0.14921449026 -0.168195100663  0.
0.176520789568 -0.22802506807  0.
0.202796652376 -0.296785215221  0.
0.228042058601 -0.374132029327  0.
0.25225702015 -0.459722118275  0.
0.275441548281 -0.553212068137  0.
0.297595649147 -0.65425843579  0.
0.318719325446 -0.762517759883  0.
0.338812578173 -0.877646570631  0.
0.357875407633 -0.999301394955  0.
0.375907813896 -1.12713875869  0.
0.392909796974 -1.26081518738  0.
0.408881356877 -1.39998720646  0.
0.423822493644 -1.54431134127  0.
0.437733207338 -1.69344411701  0.
0.450613497988 -1.84704205893  0.
0.462463365291 -2.00476169363  0.
0.473282807588 -2.16625955375  0.
0.483071819028 -2.33119219155  0.
0.491830382878 -2.4992162128  0.
0.499558458529 -2.66998834387  0.
0.506255965162 -2.84316553824  0.
0.511922792283 -3.01840495734  0.
0.516559004604 -3.19536357385  0.
0.520166187493 -3.37369387362  0.
0.522752184901 -3.55303930016  0.
0.524354816163 -3.73294927375  0.
0.524840044721 -3.91312046357  0.
0.0 -0.027  0.
0.0432139489109 -0.0363172650396  0.
0.0851382057664 -0.0565695929596  0.
0.125686889085 -0.0871641755114  0.
0.164851942437 -0.127737873197  0.
0.202637854777 -0.177932600189  0.
0.23904744305 -0.237401895151  0.
0.274082207202 -0.305801396115  0.
0.307742770418 -0.382787573005  0.
0.340029359596 -0.468017020279  0.
0.370942041925 -0.561146325159  0.
0.400480831502 -0.661832045918  0.
0.428645728275 -0.769730722297  0.
0.455436730116 -0.884498885026  0.
0.480853835516 -1.00579306124  0.
0.504897043718 -1.13326977684  0.
0.527566354406 -1.26658555739  0.
0.548861767493 -1.40539692831  0.
0.568783283102 -1.54936041496  0.
0.587330901837 -1.69813254252  0.
0.604504625563 -1.85136983635  0.
0.620304459077 -2.00872882346  0.
0.634730412689 -2.16986603776  0.
0.647782503299 -2.33443803492  0.
0.65946074203 -2.50210142756  0.
0.669765069057 -2.67251295608  0.
0.678695121592 -2.84532957273  0.
0.686249588971 -3.02020846564  0.
0.692424527986 -3.19680610758  0.
0.697210065808 -3.37477656473  0.
0.700581132813 -3.55374995491  0.
0.702498833089 -3.73334156318  0.
0.702979797876 -3.912448734  0.
</DataArray>
<DataArray type="Float64" Name="Nodal_sigma_xx" NumberOfComponents="1" format="ascii" >
-75661.1252711 
-74499.7942363 
-72139.4172431 
-69735.9085548 
-67327.0761731 
-64919.3695238 
-62513.3594321 
-60108.3388109 
-57703.7742258 
-55299.3844914 
-52895.0511267 
-50490.731653 
-48086.4136451 
-45682.0946047 
-43277.7746111 
-40873.4540961 
-38469.1333797 
-36064.812718 
-33660.4925208 
-31256.1737225 
-28851.8583219 
-26447.54967 
-24043.2503237 
-21638.9499868 
-19234.582267 
-16829.9009575 
-14424.1740797 
-12015.5881281 
-9600.27032073 
-7172.64500694 
-4729.94996684 
-2329.3811376 
-1153.87405116 
-64914.7778008 
-63882.2181928 
-61822.3555812 
-59765.1100438 
-57704.5996916 
-55643.4144983 
-53582.2644327 
-51521.2595562 
-49460.345946 
-47399.4756599 
-45338.6222952 
-43277.774502 
-41216.9281346 
-39156.0819494 
-37095.2356813 
-35034.38933 
-32973.5429441 
-30912.6965845 
-28851.8503517 
-26791.0044366 
-24730.1591406 
-22669.314643 
-20608.4697873 
-18547.6178431 
-16486.7346017 
-14425.7494469 
-12364.4920119 
-10302.6217826 
-8239.81047041 
-6176.76406592 
-4120.63130063 
-2068.60067834 
-1041.32388432 
-43343.0178151 
-42621.398589 
-41208.8988272 
-39833.2021115 
-38463.4549855 
-37092.6813656 
-35720.3728599 
-34347.1361899 
-32973.4708255 
-31599.6394907 
-30225.7542997 
-28851.8556243 
-27477.9554072 
-26104.0561063 
-24730.1576875 
-23356.2597564 
-21982.3620143 
-20608.4642184 
-19234.5659803 
-17860.6664197 
-16486.7636687 
-15112.8546433 
-13738.9371725 
-12365.0216345 
-10991.1720327 
-9617.62362944 
-8245.06720329 
-6875.21848657 
-5511.61394066 
-4159.53177697 
-2818.90848926 
-1443.16249595 
-735.616473578 
-21679.8003371 
-21320.0071349 
-20609.2205997 
-19914.8533429 
-19229.4697726 
-18545.0090459 
-17859.5859117 
-17173.3421223 
-16486.6647581 
-15799.8033039 
-15112.8760092 
-14425.9294509 
-13738.9790367 
-13052.0287577 
-12365.0791499 
-11678.1299913 
-10991.1810118 
-10304.2319468 
-9617.28236715 
-8930.33137611 
-8243.37728964 
-7556.41799216 
-6869.45468412 
-6182.50729303 
-5495.66270781 
-4809.20089147 
-4123.8699803 
-3441.32969832 
-2764.29606141 
-2093.85775852 
-1417.80806611 
-718.197434551 
-360.939932437 
1.70985003933e-10 
1.73713488039e-10 
1.82353687705e-10 
1.84172677109e-10 
1.80534698302e-10 
1.80989445653e-10 
1.90539140021e-10 
1.87355908565e-10 
1.83717929758e-10 
1.86673787539e-10 
1.84172677109e-10 
1.86219040188e-10 
1.87810655916e-10 
1.65982783074e-10 
1.41881173477e-10 
1.39152689371e-10 
1.47565515363e-10 
1.50976120494e-10 
1.48020262714e-10 
1.70985003933e-10 
2.00316208065e-10 
1.48020262714e-10 
7.3100636655e-11 
7.93534127297e-11 
1.04478203866e-10 
1.4620127331e-10 
2.085585038e-10 
9.91917659121e-11 
-6.67341737426e-11 
-4.27178292739e-11 
1.44865452967e-10 
1.90226501218e-10 
9.98880977932e-11 
21679.8003371 
21320.0071349 
20609.2205997 
19914.8533429 
19229.4697726 
18545.0090459 
17859.5859117 
17173.3421223 
16486.6647581 
15799.8033039 
15112.8760092 
14425.9294509 
13738.9790367 
13052.0287577 
12365.0791499 
11678.1299913 
10991.1810118 
10304.2319468 
9617.28236715 
8930.33137611 
8243.37728964 
7556.41799216 
6869.45468412 
6182.50729303 
5495.66270781 
4809.20089147 
4123.8699803 
3441.32969832 
2764.29606141 
2093.85775852 
1417.80806611 
718.197434551 
360.939932437 
43343.0178151 
42621.398589 
41208.8988272 
39833.2021115 
38463.4549855 
37092.6813656 
35720.3728599 
34347.1361899 
32973.4708255 
31599.6394907 
30225.7542997 
28851.8556243 
27477.9554072 
26104.0561063 
24730.1576875 
23356.2597564 
21982.3620143 
20608.4642184 
19234.5659803 
17860.6664197 
16486.7636687 
15112.8546433 
13738.9371725 
12365.0216345 
10991.1720327 
9617.62362944 
8245.06720329 
6875.21848657 
5511.61394066 
4159.53177697 
2818.90848926 
1443.16249595 
735.616473578 
64914.7778008 
63882.2181928 
61822.3555812 
59765.1100438 
57704.5996916 
55643.4144983 
53582.2644327 
51521.2595562 
49460.345946 
47399.4756599 
45338.6222952 
43277.774502 
41216.9281346 
39156.0819494 
37095.2356813 
35034.38933 
32973.5429441 
30912.6965845 
28851.8503517 
26791.0044366 
24730.1591406 
22669.314643 
20608.4697873 
18547.6178431 
16486.7346017 
14425.7494469 
12364.4920119 
10302.6217826 
8239.81047041 
6176.76406592 
4120.63130063 
2068.60067835 
1041.32388432 
75661.1252711 
74499.7942363 
72139.4172431 
69735.9085548 
67327.0761731 
64919.3695238 
62513.3594321 
60108.3388109 
57703.7742258 
55299.3844914 
52895.0511267 
50490.731653 
48086.4136451 
45682.0946047 
43277.7746111 
40873.4540961 
38469.1333797 
36064.812718 
33660.4925208 
31256.1737225 
28851.8583219 
26447.54967 
24043.2503237 
21638.9499868 
19234.582267 
16829.9009575 
14424.1740797 
12015.5881281 
9600.27032073 
7172.64500694 
4729.94996684 
2329.3811376 
1153.87405116 
</DataArray>
<DataArray type="Float64" Name="Nodal_sigma_yy" NumberOfComponents="1" format="ascii" >
291.312574054 
146.654990976 
2.78208506548 
0.949398270383 
-1.25327440121 
-0.660867128976 
-0.340538589168 
-0.135369179946 
-0.047139745644 
-0.0129924801799 
-0.00224948177538 
0.000350191191501 
0.000582028135796 
0.000362464749742 
0.000171847256752 
6.46666690045e-05 
-5.82166103413e-06 
-0.000116359307412 
-0.000395039329305 
-0.00106634331041 
-0.00241762100768 
-0.00435685406342 
-0.0044801993904 
0.00776361942394 
0.0678729010601 
0.266550507707 
0.842516443253 
2.11596670378 
5.55234208872 
7.49185025763 
29.1600287218 
-287.062320769 
-625.602353362 
266.893995239 
153.963657399 
23.1761813638 
1.80376876969 
-1.75377418068 
-1.41416842924 
-0.748958817195 
-0.321355555187 
-0.116676993684 
-0.0349008723415 
-0.00737740790282 
-3.4030002098e-05 
0.00107586654667 
0.00077088742205 
0.000388140234236 
0.000147781024452 
-2.52511604231e-05 
-0.000299115633766 
-0.000957544405992 
-0.00246128571473 
-0.00526993775475 
-0.00856294710775 
-0.00537998262155 
0.0318935168104 
0.188035715561 
0.681349185254 
1.98809984484 
4.92633451043 
10.4589943915 
16.389903121 
4.79839187528 
-269.716027609 
-530.239458751 
199.467585433 
137.302891693 
43.9069026894 
5.78218671996 
-1.92173465469 
-2.24158054813 
-1.29294414448 
-0.583078936883 
-0.220860069515 
-0.0697925247561 
-0.0166049452838 
-0.00138199623609 
0.0014949042104 
0.00127011749794 
0.000678089060557 
0.000260964056224 
-6.35779057347e-05 
-0.000580979768301 
-0.00177786341806 
-0.00438538013555 
-0.00889873506753 
-0.0129151186528 
-0.00172641998859 
0.0785512817848 
0.385770014343 
1.30995701023 
3.64763564858 
8.58360356338 
16.2058503132 
19.6591547492 
-28.6131074213 
-208.225419684 
-340.451331227 
104.804924559 
76.5997782995 
30.8819439487 
6.73083241845 
-0.915206562619 
-1.64877459109 
-1.02919499872 
-0.481599897764 
-0.187942425014 
-0.0615208847913 
-0.0156385157917 
-0.00192879971513 
0.000962713295394 
0.000972798071302 
0.000544684235564 
0.000211348078096 
-6.31174163388e-05 
-0.000502839071778 
-0.00149309376975 
-0.00357550837184 
-0.00695742086239 
-0.00910855538172 
0.00336277761282 
0.0772319172106 
0.345336383814 
1.12580566935 
3.03790886374 
6.8420860784 
11.8788712738 
8.64031639327 
-27.2242525509 
-110.022292464 
-162.765425716 
3.95630195271e-11 
3.05959702018e-11 
1.63282720678e-11 
6.76436684444e-12 
-6.79278855387e-12 
-8.21387402539e-12 
8.6970430857e-12 
-6.13908923697e-12 
-1.40403244586e-11 
7.53175299906e-12 
6.65068000671e-12 
1.39834810398e-11 
2.83648660115e-11 
-3.3480773709e-11 
-1.10020437205e-10 
-1.24728671835e-10 
-6.68833877171e-11 
-3.80921960641e-11 
-3.89519527744e-11 
1.06737729766e-10 
8.80362449607e-11 
-1.77649894795e-10 
-3.1111824228e-10 
-1.9823431785e-10 
-7.96802623881e-11 
9.93054527498e-11 
2.84600787381e-10 
2.97326607779e-11 
-2.97577074093e-10 
-2.34861019521e-10 
3.21019655303e-10 
5.01167107814e-10 
2.52008192092e-10 
-104.804924559 
-76.5997782994 
-30.8819439486 
-6.73083241843 
0.915206562619 
1.64877459108 
1.02919499872 
0.481599897763 
0.187942425004 
0.0615208848155 
0.0156385157926 
0.00192879960667 
-0.000962713350589 
-0.000972798053397 
-0.000544684242811 
-0.000211348057647 
6.31173071639e-05 
0.00050283869615 
0.00149309339952 
0.00357550829457 
0.00695742085283 
0.00910855531821 
-0.00336277775455 
-0.0772319174851 
-0.345336384207 
-1.12580566975 
-3.03790886378 
-6.84208607847 
-11.8788712741 
-8.6403163933 
27.2242525512 
110.022292464 
162.765425715 
-199.467585433 
-137.302891693 
-43.9069026894 
-5.78218671994 
1.92173465472 
2.24158054816 
1.2929441445 
0.583078936897 
0.220860069484 
0.0697925247215 
0.016604945224 
0.00138199612934 
-0.00149490426531 
-0.00127011750112 
-0.000678089052144 
-0.00026096407089 
6.35776717672e-05 
0.000580979313099 
0.00177786299275 
0.00438537987981 
0.00889873487012 
0.0129151185121 
0.0017264196523 
-0.0785512823055 
-0.385770014558 
-1.30995701033 
-3.64763564874 
-8.5836035635 
-16.2058503133 
-19.6591547491 
28.6131074216 
208.225419684 
340.451331227 
-266.893995239 
-153.963657399 
-23.1761813638 
-1.80376876969 
1.75377418069 
1.41416842928 
0.748958817258 
0.321355555227 
0.116676993671 
0.0349008723208 
0.00737740784371 
3.40299823165e-05 
-0.00107586656168 
-0.000770887431599 
-0.00038814020354 
-0.00014778116406 
2.52508691574e-05 
0.000299115460393 
0.000957544221023 
0.00246128555091 
0.00526993789117 
0.00856294715709 
0.00537998238747 
-0.0318935169066 
-0.1880357154 
-0.681349185101 
-1.98809984495 
-4.92633451068 
-10.4589943918 
-16.3899031209 
-4.79839187443 
269.716027609 
530.239458752 
-291.312574054 
-146.654990976 
-2.7820850655 
-0.949398270396 
1.25327440121 
0.660867128983 
0.340538589227 
0.135369180008 
0.0471397456904 
0.0129924802409 
0.00224948176538 
-0.000350191262442 
-0.000582028223107 
-0.000362464659702 
-0.000171847006641 
-6.4666628532e-05 
5.82146185479e-06 
0.000116359195999 
0.000395039147406 
0.00106634312624 
0.00241762148016 
0.00435685467164 
0.0044801999336 
-0.00776361872727 
-0.0678729009323 
-0.266550508198 
-0.8425164438 
-2.11596670424 
-5.55234208906 
-7.4918502573 
-29.1600287206 
287.06232077 
625.602353362 
</DataArray>
<DataArray type="Float64" Name="Nodal_sigma_xy" NumberOfComponents="1" format="ascii" >
-1127.05572898 
-1203.3460738 
-1286.45622412 
-1292.67362244 
-1290.85657008 
-1288.90641811 
-1287.82388016 
-1287.33926186 
-1287.15563723 
-1287.09742524 
-1287.08347403 
-1287.08225017 
-1287.0834604 
-1287.08450329 
-1287.0850663 
-1287.0853102 
-1287.0853734 
-1287.08525854 
-1287.08475407 
-1287.08327238 
-1287.07964092 
-1287.07230351 
-1287.06175091 
-1287.06078122 
-1287.12699747 
-1287.44883991 
-1288.53902845 
-1291.59562849 
-1299.09492394 
-1314.87417756 
-1341.27067814 
-1254.46299428 
-1151.76559372 
-2227.11713246 
-2262.27560995 
-2308.51125288 
-2320.57325288 
-2320.81564138 
-2319.39546151 
-2318.35103732 
-2317.82513474 
-2317.60763132 
-2317.53170967 
-2317.51025627 
-2317.50634766 
-2317.50677128 
-2317.50765575 
-2317.50822193 
-2317.50848571 
-2317.50854512 
-2317.5083815 
-2317.50775479 
-2317.50606303 
-2317.50227134 
-2317.49558888 
-2317.48923623 
-2317.50387542 
-2317.61629421 
-2318.05351683 
-2319.3812412 
-2322.77474289 
-2329.98176265 
-2341.56836032 
-2343.48248414 
-2287.65846593 
-2236.70736878 
-4059.66584925 
-4040.97740399 
-4026.74889128 
-4033.16171255 
-4035.36342828 
-4035.48245263 
-4035.22791781 
-4035.03548303 
-4034.93852121 
-4034.89861562 
-4034.88477629 
-4034.88090446 
-4034.88021975 
-4034.88031098 
-4034.88047654 
-4034.88057255 
-4034.88058569 
-4034.88048881 
-4034.88018388 
-4034.87948359 
-4034.87823233 
-4034.87698786 
-4034.87947105 
-4034.89966877 
-4034.97924935 
-4035.22259809 
-4035.84450324 
-4037.13562779 
-4038.85354528 
-4037.27650328 
-4020.46603423 
-4029.87388324 
-4053.64747284 
-5155.69536754 
-5120.53689004 
-5074.30124712 
-5062.23924712 
-5061.99685861 
-5063.41703849 
-5064.46146268 
-5064.98736526 
-5065.20486868 
-5065.28079032 
-5065.30224373 
-5065.30615234 
-5065.30572872 
-5065.30484425 
-5065.30427807 
-5065.30401429 
-5065.30395488 
-5065.3041185 
-5065.3047452 
-5065.30643697 
-5065.31022866 
-5065.31691112 
-5065.32326377 
-5065.30862458 
-5065.19620579 
-5064.75898317 
-5063.4312588 
-5060.03775711 
-5052.83073735 
-5041.24413968 
-5039.33001586 
-5095.15403407 
-5146.10513122 
-5519.23757251 
-5480.32411821 
-5425.67099332 
-5406.62795246 
-5404.04157336 
-5405.75367663 
-5407.34528422 
-5408.21477208 
-5408.59232035 
-5408.73034351 
-5408.77197338 
-5408.7809409 
-5408.78110009 
-5408.77987475 
-5408.77898061 
-5408.77854471 
-5408.77845522 
-5408.77876383 
-5408.77987817 
-5408.78276044 
-5408.78889443 
-5408.79872076 
-5408.80430699 
-5408.76488124 
-5408.53950384 
-5407.73096391 
-5405.39696507 
-5399.75811594 
-5388.82298551 
-5376.19781588 
-5383.42225339 
-5451.41423924 
-5506.56446059 
-5155.69536754 
-5120.53689004 
-5074.30124712 
-5062.23924712 
-5061.99685861 
-5063.41703849 
-5064.46146268 
-5064.98736526 
-5065.20486868 
-5065.28079032 
-5065.30224373 
-5065.30615234 
-5065.30572872 
-5065.30484425 
-5065.30427807 
-5065.30401429 
-5065.30395488 
-5065.3041185 
-5065.3047452 
-5065.30643697 
-5065.31022866 
-5065.31691112 
-5065.32326377 
-5065.30862458 
-5065.19620579 
-5064.75898317 
-5063.4312588 
-5060.03775711 
-5052.83073735 
-5041.24413968 
-5039.33001586 
-5095.15403407 
-5146.10513122 
-4059.66584925 
-4040.97740399 
-4026.74889128 
-4033.16171255 
-4035.36342828 
-4035.48245263 
-4035.22791781 
-4035.03548303 
-4034.93852121 
-4034.89861562 
-4034.88477629 
-4034.88090446 
-4034.88021975 
-4034.88031098 
-4034.88047654 
-4034.88057255 
-4034.88058569 
-4034.88048881 
-4034.88018388 
-4034.87948359 
-4034.87823233 
-4034.87698786 
-4034.87947105 
-4034.89966877 
-4034.97924935 
-4035.22259809 
-4035.84450324 
-4037.13562779 
-4038.85354528 
-4037.27650328 
-4020.46603423 
-4029.87388324 
-4053.64747285 
-2227.11713246 
-2262.27560995 
-2308.51125288 
-2320.57325288 
-2320.81564138 
-2319.39546151 
-2318.35103732 
-2317.82513474 
-2317.60763132 
-2317.53170967 
-2317.51025627 
-2317.50634766 
-2317.50677128 
-2317.50765575 
-2317.50822193 
-2317.50848571 
-2317.50854512 
-2317.5083815 
-2317.50775479 
-2317.50606303 
-2317.50227134 
-2317.49558888 
-2317.48923623 
-2317.50387542 
-2317.61629421 
-2318.05351683 
-2319.3812412 
-2322.77474289 
-2329.98176265 
-2341.56836032 
-2343.48248414 
-2287.65846593 
-2236.70736878 
-1127.05572898 
-1203.3460738 
-1286.45622412 
-1292.67362244 
-1290.85657008 
-1288.90641811 
-1287.82388016 
-1287.33926186 
-1287.15563723 
-1287.09742524 
-1287.08347403 
-1287.08225017 
-1287.0834604 
-1287.08450329 
-1287.0850663 
-1287.0853102 
-1287.0853734 
-1287.08525854 
-1287.08475407 
-1287.08327238 
-1287.07964092 
-1287.07230351 
-1287.06175091 
-1287.06078121 
-1287.12699747 
-1287.44883991 
-1288.53902845 
-1291.59562849 
-1299.09492394 
-1314.87417756 
-1341.27067814 
-1254.46299428 
-1151.76559372 
</DataArray>
</PointData>
<CellData>
</CellData>
<Points>
<DataArray type="Float64" Name="Points" NumberOfComponents="3" format="ascii">
0.0 -2.0 0.0
0.5 -2.0 0.0
1.0 -2.0 0.0
1.5 -2.0 0.0
2.0 -2.0 0.0
2.5 -2.0 0.0
3.0 -2.0 0.0
3.5 -2.0 0.0
4.0 -2.0 0.0
4.5 -2.0 0.0
5.0 -2.0 0.0
5.5 -2.0 0.0
6.0 -2.0 0.0
6.5 -2.0 0.0
7.0 -2.0 0.0
7.5 -2.0 0.0
8.0 -2.0 0.0
8.5 -2.0 0.0
9.0 -2.0 0.0
9.5 -2.0 0.0
10.0 -2.0 0.0
10.5 -2.0 0.0
11.0 -2.0 0.0
11.5 -2.0 0.0
12.0 -2.0 0.0
12.5 -2.0 0.0
13.0 -2.0 0.0
13.5 -2.0 0.0
14.0 -2.0 0.0
14.5 -2.0 0.0
15.0 -2.0 0.0
15.5 -2.0 0.0
16.0 -2.0 0.0
0.0 -1.5 0.0
0.5 -1.5 0.0
1.0 -1.5 0.0
1.5 -1.5 0.0
2.0 -1.5 0.0
2.5 -1.5 0.0
3.0 -1.5 0.0
3.5 -1.5 0.0
4.0 -1.5 0.0
4.5 -1.5 0.0
5.0 -1.5 0.0
5.5 -1.5 0.0
6.0 -1.5 0.0
6.5 -1.5 0.0
7.0 -1.5 0.0
7.5 -1.5 0.0
8.0 -1.5 0.0
8.5 -1.5 0.0
9.0 -1.5 0.0
9.5 -1.5 0.0
10.0 -1.5 0.0
10.5 -1.5 0.0
11.0 -1.5 0.0
11.5 -1.5 0.0
12.0 -1.5 0.0
12.5 -1.5 0.0
13.0 -1.5 0.0
13.5 -1.5 0.0
14.0 -1.5 0.0
14.5 -1.5 0.0
15.0 -1.5 0.0
15.5 -1.5 0.0
16.0 -1.5 0.0
0.0 -1.0 0.0
0.5 -1.0 0.0
1.0 -1.0 0.0
1.5 -1.0 0.0
2.0 -1.0 0.0
2.5 -1.0 0.0
3.0 -1.0 0.0
3.5 -1.0 0.0
4.0 -1.0 0.0
4.5 -1.0 0.0
5.0 -1.0 0.0
5.5 -1.0 0.0
6.0 -1.0 0.0
6.5 -1.0 0.0
7.0 -1.0 0.0
7.5 -1.0 0.0
8.0 -1.0 0.0
8.5 -1.0 0.0
9.0 -1.0 0.0
9.5 -1.0 0.0
10.0 -1.0 0.0
10.5 -1.0 0.0
11.0 -1.0 0.0
11.5 -1.0 0.0
12.0 -1.0 0.0
12.5 -1.0 0.0
13.0 -1.0 0.0
13.5 -1.0 0.0
14.0 -1.0 0.0
14.5 -1.0 0.0
15.0 -1.0 0.0
15.5 -1.0 0.0
16.0 -1.0 0.0
0.0 -0.5 0.0
0.5 -0.5 0.0
1.0 -0.5 0.0
1.5 -0.5 0.0
2.0 -0.5 0.0
2.5 -0.5 0.0
3.0 -0.5 0.0
3.5 -0.5 0.0
4.0 -0.5 0.0
4.5 -0.5 0.0
5.0 -0.5 0.0
5.5 -0.5 0.0
6.0 -0.5 0.0
6.5 -0.5 0.0
7.0 -0.5 0.0
7.5 -0.5 0.0
8.0 -0.5 0.0
8.5 -0.5 0.0
9.0 -0.5 0.0
9.5 -0.5 0.0
10.0 -0.5 0.0
10.5 -0.5 0.0
11.0 -0.5 0.0
11.5 -0.5 0.0
12.0 -0.5 0.0
12.5 -0.5 0.0
13.0 -0.5 0.0
13.5 -0.5 0.0
14.0 -0.5 0.0
14.5 -0.5 0.0
15.0 -0.5 0.0
15.5 -0.5 0.0
16.0 -0.5 0.0
0.0 0.0 0.0
0.5 0.0 0.0
1.0 0.0 0.0
1.5 0.0 0.0
2.0 0.0 0.0
2.5 0.0 0.0
3.0 0.0 0.0
3.5 0.0 0.0
4.0 0.0 0.0
4.5 0.0 0.0
5.0 0.0 0.0
5.5 0.0 0.0
6.0 0.0 0.0
6.5 0.0 0.0
7.0 0.0 0.0
7.5 0.0 0.0
8.0 0.0 0.0
8.5 0.0 0.0
9.0 0.0 0.0
9.5 0.0 0.0
10.0 0.0 0.0
10.5 0.0 0.0
11.0 0.0 0.0
11.5 0.0 0.0
12.0 0.0 0.0
12.5 0.0 0.0
13.0 0.0 0.0
13.5 0.0 0.0
14.0 0.0 0.0
14.5 0.0 0.0
15.0 0.0 0.0
15.5 0.0 0.0
16.0 0.0 0.0
0.0 0.5 0.0
0.5 0.5 0.0
1.0 0.5 0.0
1.5 0.5 0.0
2.0 0.5 0.0
2.5 0.5 0.0
3.0 0.5 0.0
3.5 0.5 0.0
4.0 0.5 0.0
4.5 0.5 0.0
5.0 0.5 0.0
5.5 0.5 0.0
6.0 0.5 0.0
6.5 0.5 0.0
7.0 0.5 0.0
7.5 0.5 0.0
8.0 0.5 0.0
8.5 0.5 0.0
9.0 0.5 0.0
9.5 0.5 0.0
10.0 0.5 0.0
10.5 0.5 0.0
11.0 0.5 0.0
11.5 0.5 0.0
12.0 0.5 0.0
12.5 0.5 0.0
13.0 0.5 0.0
13.5 0.5 0.0
14.0 0.5 0.0
14.5 0.5 0.0
15.0 0.5 0.0
15.5 0.5 0.0
16.0 0.5 0.0
0.0 1.0 0.0
0.5 1.0 0.0
1.0 1.0 0.0
1.5 1.0 0.0
2.0 1.0 0.0
2.5 1.0 0.0
3.0 1.0 0.0
3.5 1.0 0.0
4.0 1.0 0.0
4.5 1.0 0.0
5.0 1.0 0.0
5.5 1.0 0.0
6.0 1.0 0.0
6.5 1.0 0.0
7.0 1.0 0.0
7.5 1.0 0.0
8.0 1.0 0.0
8.5 1.0 0.0
9.0 1.0 0.0
9.5 1.0 0.0
10.0 1.0 0.0
10.5 1.0 0.0
11.0 1.0 0.0
11.5 1.0 0.0
12.0 1.0 0.0
12.5 1.0 0.0
13.0 1.0 0.0
13.5 1.0 0.0
14.0 1.0 0.0
14.5 1.0 0.0
15.0 1.0 0.0
15.5 1.0 0.0
16.0 1.0 0.0
0.0 1.5 0.0
0.5 1.5 0.0
1.0 1.5 0.0
1.5 1.5 0.0
2.0 1.5 0.0
2.5 1.5 0.0
3.0 1.5 0.0
3.5 1.5 0.0
4.0 1.5 0.0
4.5 1.5 0.0
5.0 1.5 0.0
5.5 1.5 0.0
6.0 1.5 0.0
6.5 1.5 0.0
7.0 1.5 0.0
7.5 1.5 0.0
8.0 1.5 0.0
8.5 1.5 0.0
9.0 1.5 0.0
9.5 1.5 0.0
10.0 1.5 0.0
10.5 1.5 0.0
11.0 1.5 0.0
11.5 1.5 0.0
12.0 1.5 0.0
12.5 1.5 0.0
13.0 1.5 0.0
13.5 1.5 0.0
14.0 1.5 0.0
14.5 1.5 0.0
15.0 1.5 0.0
15.5 1.5 0.0
16.0 1.5 0.0
0.0 2.0 0.0
0.5 2.0 0.0
1.0 2.0 0.0
1.5 2.0 0.0
2.0 2.0 0.0
2.5 2.0 0.0
3.0 2.0 0.0
3.5 2.0 0.0
4.0 2.0 0.0
4.5 2.0 0.0
5.0 2.0 0.0
5.5 2.0 0.0
6.0 2.0 0.0
6.5 2.0 0.0
7.0 2.0 0.0
7.5 2.0 0.0
8.0 2.0 0.0
8.5 2.0 0.0
9.0 2.0 0.0
9.5 2.0 0.0
10.0 2.0 0.0
10.5 2.0 0.0
11.0 2.0 0.0
11.5 2.0 0.0
12.0 2.0 0.0
12.5 2.0 0.0
13.0 2.0 0.0
13.5 2.0 0.0
14.0 2.0 0.0
14.5 2.0 0.0
15.0 2.0 0.0
15.5 2.0 0.0
16.0 2.0 0.0
</DataArray>
</Points>
<Cells>
<DataArray type="Int64" Name="connectivity" format="ascii">
0 1 34 33 
1 2 35 34 
2 3 36 35 
3 4 37 36 
4 5 38 37 
5 6 39 38 
6 7 40 39 
7 8 41 40 
8 9 42 41 
9 10 43 42 
10 11 44 43 
11 12 45 44 
12 13 46 45 
13 14 47 46 
14 15 48 47 
15 16 49 48 
16 17 50 49 
17 18 51 50 
18 19 52 51 
19 20 53 52 
20 21 54 53 
21 22 55 54 
22 23 56 55 
23 24 57 56 
24 25 58 57 
25 26 59 58 
26 27 60 59 
27 28 61 60 
28 29 62 61 
29 30 63 62 
30 31 64 63 
31 32 65 64 
33 34 67 66 