<?xml version="1.0"?>
<VTKFile type="UnstructuredGrid" version="0.1" byte_order="LittleEndian" compressor="vtkZLibDataCompressor">
<UnstructuredGrid>
<Piece NumberOfPoints="297" NumberOfCells="256">
<PointData>
<DataArray type="Float64" Name="displacement" NumberOfComponents="3" format="ascii" >
0.0 -0.0108  0.
-0.0172855795643 -0.0145269060158  0.
-0.0340552823066 -0.0226278371838  0.
-0.050274755634 -0.0348656702046  0.
-0.0659407769749 -0.0510951492786  0.
-0.0810551419109 -0.0711730400755  0.
-0.0956189772201 -0.0949607580603  0.
-0.109632882881 -0.122320558446  0.
-0.123097108167 -0.153115029202  0.
-0.136011743838 -0.187206808112  0.
-0.14837681677 -0.224458530064  0.
-0.160192332601 -0.264732818367  0.
-0.17145829131 -0.307892288919  0.
-0.182174692046 -0.35379955401  0.
-0.192341534206 -0.402317224495  0.
-0.201958817487 -0.453307910736  0.
-0.211026541762 -0.506634222954  0.
-0.219544706997 -0.562158771326  0.
-0.227513313241 -0.619744165983  0.
-0.234932360735 -0.679253017006  0.
-0.241801850225 -0.740547934539  0.
-0.248121783631 -0.803491529385  0.
-0.253892165076 -0.867946415105  0.
-0.25911300132 -0.933775213967  0.
-0.263784296812 -1.00084057103  0.
-0.267906027623 -1.06900518243  0.
-0.271478048637 -1.13813182909  0.
-0.274499835588 -1.20808338625  0.
-0.276969811194 -1.27872244303  0.
-0.278884026323 -1.34991062589  0.
-0.280232453125 -1.42149998196  0.
-0.280999533235 -1.49333662527  0.
-0.281191919151 -1.5649794936  0.
0.00113203125 -0.006075  0.
-0.011881796803 -0.0100560459537  0.
-0.0244477190303 -0.0182972826986  0.
-0.0366048222282 -0.0306819534307  0.
-0.0483511790614 -0.0470557597397  0.
-0.0596857961039 -0.0672780402651  0.
-0.0706083158272 -0.091210027228  0.
-0.0811186609505 -0.118714086088  0.
-0.0912168234403 -0.149652811731  0.
-0.10090280806 -0.18388884731  0.
-0.110176619312 -0.221284827255  0.
-0.119038259659 -0.261703374316  0.
-0.127487730179 -0.305007103953  0.
-0.135525031269 -0.351058628252  0.
-0.143150163053 -0.399720557982  0.
-0.150363125558 -0.450855503476  0.
-0.157163918789 -0.504326074951  0.
-0.163552542751 -0.559994882584  0.
-0.169528997457 -0.61772453651  0.
-0.175093282935 -0.677377646805  0.
-0.180245399195 -0.738816823573  0.
-0.184985346116 -0.801904677454  0.
-0.189313123035 -0.866503821498  0.
-0.193228727611 -0.932476876618  0.
-0.196732153151 -0.999686485121  0.
-0.199823383411 -1.06799533755  0.
-0.202502386065 -1.1372662153  0.
-0.204769116913 -1.20736198294  0.
-0.206623601842 -1.27814542954  0.
-0.208066474997 -1.34947754945  0.
-0.20910087396 -1.42121572006  0.
-0.209741926465 -1.4931797095  0.
-0.209936017888 -1.56524818543  0.
0.00129375 -0.0027  0.
-0.00738889112923 -0.00683384414744  0.
-0.0157769187969 -0.0152041543362  0.
-0.023880557706 -0.027694285199  0.
-0.0317095459454 -0.0441714632862  0.
-0.0392647413726 -0.0644963952526  0.
-0.0465458565652 -0.0885311574089  0.
-0.0535525343016 -0.116138115978  0.
-0.0602845714312 -0.147179824371  0.
-0.0667418766337 -0.181518880871  0.
-0.0729244153876 -0.219017896901  0.
-0.0788321768046 -0.259539485035  0.
-0.0844651583019 -0.302946257039  0.
-0.08982335967 -0.349100823876  0.
-0.0949067811455 -0.397865796074  0.
-0.0997154229271 -0.449103783964  0.
-0.104249285116 -0.502677397804  0.
-0.108508367731 -0.558449247825  0.
-0.112492670693 -0.616281944252  0.
-0.116202193728 -0.676038097331  0.
-0.11963693615 -0.737580317428  0.
-0.122796896565 -0.800771215327  0.
-0.125682072939 -0.865473403005  0.
-0.128292464964 -0.931549495335  0.
-0.130628084828 -0.998862112794  0.
-0.13268899268 -1.06727388406  0.
-0.134475393339 -1.13664743417  0.
-0.135987859218 -1.20684533734  0.
-0.13722775872 -1.2777297952  0.
-0.138197669385 -1.34916212707  0.
-0.138901262211 -1.42099855685  0.
-0.139326572845 -1.49310239387  0.
-0.139451805722 -1.56538799884  0.
0.00080859375 -0.000675  0.
-0.00353458241118 -0.0048941476097  0.
-0.00773046150626 -0.0133431234372  0.
-0.0117835372691 -0.0259016478162  0.
-0.0156976460061 -0.0424413417179  0.
-0.0194748016043 -0.0628277983058  0.
-0.0231151022271 -0.086924028642  0.
-0.0266183268623 -0.114592614957  0.
-0.0299843029079 -0.145696060133  0.
-0.0332129423966 -0.180096909015  0.
-0.0363042088078 -0.217657740154  0.
-0.0392580893652 -0.258241151316  0.
-0.0420745804485 -0.301709748565  0.
-0.0447536813929 -0.347926141041  0.
-0.0472953922664 -0.396752938829  0.
-0.049699713215 -0.448052752218  0.
-0.0519666443249 -0.50168819152  0.
-0.0540961856073 -0.55752186704  0.
-0.0560883369731 -0.615416389134  0.
-0.0579430981442 -0.675234368275  0.
-0.0596604684872 -0.736838415145  0.
-0.0612404468876 -0.800091140518  0.
-0.0626830323008 -0.864855154234  0.
-0.0639882272427 -0.930993061002  0.
-0.0651560507263 -0.998367447551  0.
-0.0661865764314 -1.0668408485  0.
-0.0670800273774 -1.1362756757  0.
-0.067836968245 -1.20653408271  0.
-0.0684585505461 -1.27747793094  0.
-0.0689463509396 -1.34896894281  0.
-0.0692989586835 -1.42087240204  0.
-0.0695096118416 -1.49306765709  0.
-0.0695718395253 -1.56545605095  0.
0.0 0.0  0.
8.11377254953e-17 -0.00424684812688  0.
1.67957283455e-16 -0.0127219833073  0.
2.59571544543e-16 -0.0253037862792  0.
3.51337076763e-16 -0.0418647332183  0.
4.44901280691e-16 -0.0622716731479  0.
5.38254436917e-16 -0.0863883653834  0.
6.33331179152e-16 -0.114077467608  0.
7.26181106637e-16 -0.145201479478  0.
8.16056110204e-16 -0.179622920651  0.
9.10591299096e-16 -0.217204355081  0.
1.00823094423e-15 -0.257808373433  0.
1.09668795851e-15 -0.301297579014  0.
1.19461105693e-15 -0.347534580051  0.
1.28598424175e-15 -0.39638198639  0.
1.38387723203e-15 -0.447702408294  0.
1.46403257117e-15 -0.501358456093  0.
1.55191666731e-15 -0.557212740131  0.
1.63295819476e-15 -0.615127870821  0.
1.69291167496e-15 -0.674966458741  0.
1.75503893295e-15 -0.7365911147  0.
1.84925733812e-15 -0.799864449405  0.
1.97048997834e-15 -0.864649071513  0.
2.05235105383e-15 -0.930807580611  0.
2.11573338234e-15 -0.998202546662  0.
2.15243063062e-15 -1.06669646041  0.
2.21136070769e-15 -1.13615162989  0.
2.27383046165e-15 -1.20643005131  0.
2.30226584891e-15 -1.27739338594  0.
2.31867162935e-15 -1.34890436331  0.
2.2876403873e-15 -1.4208316174  0.
2.31366947605e-15 -1.49305704746  0.
2.35086941854e-15 -1.565476932  0.
-0.00080859375 -0.000675  0.
0.00353458241118 -0.0048941476097  0.
0.00773046150626 -0.0133431234372  0.
0.0117835372691 -0.0259016478162  0.
0.0156976460061 -0.0424413417179  0.
0.0194748016043 -0.0628277983058  0.
0.0231151022271 -0.086924028642  0.
0.0266183268623 -0.114592614957  0.
0.0299843029079 -0.145696060133  0.
0.0332129423966 -0.180096909015  0.
0.0363042088078 -0.217657740154  0.
0.0392580893652 -0.258241151316  0.
0.0420745804485 -0.301709748565  0.
0.0447536813929 -0.347926141041  0.
0.0472953922664 -0.396752938829  0.
0.049699713215 -0.448052752218  0.
0.0519666443249 -0.50168819152  0.
0.0540961856073 -0.55752186704  0.
0.0560883369731 -0.615416389134  0.
0.0579430981442 -0.675234368275  0.
0.0596604684872 -0.736838415145  0.
0.0612404468877 -0.800091140518  0.
0.0626830323008 -0.864855154234  0.
0.0639882272427 -0.930993061002  0.
0.0651560507263 -0.998367447551  0.
0.0661865764314 -1.0668408485  0.
0.0670800273774 -1.1362756757  0.
0.067836968245 -1.20653408271  0.
0.0684585505461 -1.27747793094  0.
0.0689463509396 -1.34896894281  0.
0.0692989586835 -1.42087240204  0.
0.0695096118416 -1.49306765709  0.
0.0695718395253 -1.56545605095  0.
-0.00129375 -0.0027  0.
0.00738889112923 -0.00683384414744  0.
0.0157769187969 -0.0152041543362  0.
0.023880557706 -0.027694285199  0.
0.0317095459454 -0.0441714632862  0.
0.0392647413726 -0.0644963952526  0.
0.0465458565652 -0.0885311574089  0.
0.0535525343016 -0.116138115978  0.
0.0602845714312 -0.147179824371  0.
0.0667418766337 -0.181518880871  0.
0.0729244153876 -0.219017896901  0.
0.0788321768046 -0.259539485035  0.
0.0844651583019 -0.302946257039  0.
0.08982335967 -0.349100823876  0.
0.0949067811455 -0.397865796074  0.
0.0997154229271 -0.449103783964  0.
0.104249285116 -0.502677397804  0.
0.108508367731 -0.558449247825  0.
0.112492670693 -0.616281944252  0.
0.116202193728 -0.676038097331  0.
0.11963693615 -0.737580317428  0.
0.122796896565 -0.800771215327  0.
0.125682072939 -0.865473403005  0.
0.128292464964 -0.931549495335  0.
0.130628084828 -0.998862112794  0.
0.13268899268 -1.06727388406  0.
0.134475393339 -1.13664743417  0.
0.135987859218 -1.20684533734  0.
0.13722775872 -1.2777297952  0.
0.138197669385 -1.34916212707  0.
0.138901262211 -1.42099855685  0.
0.139326572845 -1.49310239387  0.
0.139451805722 -1.56538799884  0.
-0.00113203125 -0.006075  0.
0.011881796803 -0.0100560459537  0.
0.0244477190303 -0.0182972826986  0.
0.0366048222282 -0.0306819534307  0.
0.0483511790614 -0.0470557597397  0.
0.0596857961039 -0.0672780402651  0.
0.0706083158272 -0.091210027228  0.
0.0811186609505 -0.118714086088  0.
0.0912168234403 -0.149652811731  0.
0.10090280806 -0.18388884731  0.
0.110176619312 -0.221284827255  0.
0.119038259659 -0.261703374316  0.
0.127487730179 -0.305007103953  0.
0.135525031269 -0.351058628252  0.
0.143150163053 -0.399720557982  0.
0.150363125559 -0.450855503476  0.
0.157163918789 -0.504326074951  0.
0.163552542751 -0.559994882584  0.
0.169528997457 -0.61772453651  0.
0.175093282935 -0.677377646805  0.
0.180245399195 -0.738816823573  0.
0.184985346116 -0.801904677454  0.
0.189313123035 -0.866503821498  0.
0.193228727611 -0.932476876618  0.
0.196732153151 -0.999686485121  0.
0.199823383411 -1.06799533755  0.
0.202502386065 -1.1372662153  0.
0.204769116913 -1.20736198294  0.
0.206623601842 -1.27814542954  0.
0.208066474997 -1.34947754945  0.
0.20910087396 -1.42121572006  0.
0.209741926465 -1.4931797095  0.
0.209936017888 -1.56524818543  0.
0.0 -0.0108  0.
0.0172855795643 -0.0145269060158  0.
0.0340552823066 -0.0226278371838  0.
0.050274755634 -0.0348656702046  0.
0.0659407769749 -0.0510951492786  0.
0.0810551419109 -0.0711730400755  0.
0.0956189772201 -0.0949607580603  0.
0.109632882881 -0.122320558446  0.
0.123097108167 -0.153115029202  0.
0.136011743838 -0.187206808112  0.
0.14837681677 -0.224458530064  0.
0.160192332601 -0.264732818367  0.
0.17145829131 -0.307892288919  0.
0.182174692046 -0.35379955401  0.
0.192341534206 -0.402317224495  0.
0.201958817487 -0.453307910736  0.
0.211026541762 -0.506634222954  0.
0.219544706997 -0.562158771326  0.
0.227513313241 -0.619744165983  0.
0.234932360735 -0.679253017006  0.
0.241801850225 -0.740547934539  0.
0.248121783631 -0.803491529385  0.
0.253892165076 -0.867946415105  0.
0.25911300132 -0.933775213967  0.
0.263784296812 -1.00084057103  0.
0.267906027623 -1.06900518243  0.
0.271478048637 -1.13813182909  0.
0.274499835588 -1.20808338625  0.
0.276969811194 -1.27872244303  0.
0.278884026323 -1.34991062589  0.
0.280232453125 -1.42149998196  0.
0.280999533235 -1.49333662527  0.
0.281191919151 -1.5649794936  0.
</DataArray>
<DataArray type="Float64" Name="Nodal_sigma_xx" NumberOfComponents="1" format="ascii" >
-30264.4501084 
-29799.9176945 
-28855.7668972 
-27894.3634219 
-26930.8304692 
-25967.7478095 
-25005.3437728 
-24043.3355244 
-23081.5096903 
-22119.7537965 
-21158.0204507 
-20196.2926612 
-19234.565458 
-18272.8378419 
-17311.1098444 
-16349.3816385 
-15387.6533519 
-14425.9250872 
-13464.1970083 
-12502.469489 
-11540.7433288 
-10579.019868 
-9617.30012949 
-8655.57999471 
-7693.83290681 
-6731.96038299 
-5769.66963187 
-4806.23525124 
-3840.10812829 
-2869.05800277 
-1891.97998673 
-931.752455039 
-461.549620464 
-25965.9111203 
-25552.8872771 
-24728.9422325 
-23906.0440175 
-23081.8398766 
-22257.3657993 
-21432.9057731 
-20608.5038225 
-19784.1383784 
-18959.7902639 
-18135.4489181 
-17311.1098008 
-16486.7712538 
-15662.4327798 
-14838.0942725 
-14013.755732 
-13189.4171777 
-12365.0786338 
-11540.7401407 
-10716.4017747 
-9892.06365625 
-9067.72585718 
-8243.38791493 
-7419.04713725 
-6594.69384068 
-5770.29977874 
-4945.79680476 
-4121.04871304 
-3295.92418816 
-2470.70562637 
-1648.25252025 
-827.440271338 
-416.529553728 
-17337.2071261 
-17048.5594356 
-16483.5595309 
-15933.2808446 
-15385.3819942 
-14837.0725462 
-14288.149144 
-13738.854476 
-13189.3883302 
-12639.8557963 
-12090.3017199 
-11540.7422497 
-10991.1821629 
-10441.6224425 
-9892.06307498 
-9342.50390257 
-8792.94480572 
-8243.38568735 
-7693.82639212 
-7144.26656787 
-6594.70546749 
-6045.14185732 
-5495.57486899 
-4946.0086538 
-4396.4688131 
-3847.04945178 
-3298.02688132 
-2750.08739463 
-2204.64557626 
-1663.81271079 
-1127.5633957 
-577.26499838 
-294.246589431 
-8671.92013484 
-8528.00285395 
-8243.68823989 
-7965.94133717 
-7691.78790905 
-7418.00361838 
-7143.83436466 
-6869.33684891 
-6594.66590323 
-6319.92132157 
-6045.15040366 
-5770.37178038 
-5495.59161468 
-5220.81150309 
-4946.03165995 
-4671.25199651 
-4396.4724047 
-4121.69277874 
-3846.91294686 
-3572.13255044 
-3297.35091586 
-3022.56719686 
-2747.78187365 
-2473.00291721 
-2198.26508312 
-1923.68035659 
-1649.54799212 
-1376.53187933 
-1105.71842456 
-837.543103407 
-567.123226446 
-287.27897382 
-144.375972975 
1.75077730091e-10 
1.78488335223e-10 
1.84968484973e-10 
1.87924342754e-10 
1.86446413863e-10 
1.87583282241e-10 
1.89402271644e-10 
1.85536919162e-10 
1.81785253517e-10 
1.83831616596e-10 
1.87924342754e-10 
1.8360424292e-10 
1.77465153683e-10 
1.70302882907e-10 
1.62799551617e-10 
1.69279701367e-10 
1.72690306499e-10 
1.6564172256e-10 
1.6166268324e-10 
1.58252078108e-10 
1.62401647685e-10 
1.68540736922e-10 
1.55409907165e-10 
1.61492152984e-10 
1.6615331333e-10 
1.18063780974e-10 
1.05558228825e-10 
9.24558207771e-11 
4.39399627794e-11 
3.74598130293e-11 
4.27036184192e-11 
2.85140799861e-11 
1.58308921527e-11 
8671.92013484 
8528.00285395 
8243.68823989 
7965.94133717 
7691.78790905 
7418.00361838 
7143.83436466 
6869.33684891 
6594.66590323 
6319.92132157 
6045.15040366 
5770.37178038 
5495.59161468 
5220.81150309 
4946.03165995 
4671.25199651 
4396.4724047 
4121.69277874 
3846.91294686 
3572.13255044 
3297.35091586 
3022.56719686 
2747.78187365 
2473.00291721 
2198.26508312 
1923.68035659 
1649.54799212 
1376.53187933 
1105.71842456 
837.543103407 
567.123226446 
287.27897382 
144.375972975 
17337.2071261 
17048.5594356 
16483.5595309 
15933.2808446 
15385.3819942 
14837.0725462 
14288.149144 
13738.854476 
13189.3883302 
12639.8557963 
12090.3017199 
11540.7422497 
10991.1821629 
10441.6224425 
9892.06307498 
9342.50390257 
8792.94480572 
8243.38568735 
7693.82639212 
7144.26656787 
6594.70546749 
6045.14185732 
5495.57486899 
4946.0086538 
4396.4688131 
3847.04945178 
3298.02688132 
2750.08739463 
2204.64557626 
1663.81271079 
1127.5633957 
577.26499838 
294.246589431 
25965.9111203 
25552.8872771 
24728.9422325 
23906.0440175 
23081.8398766 
22257.3657993 
21432.9057731 
20608.5038225 
19784.1383784 
18959.7902639 
18135.4489181 
17311.1098008 
16486.7712538 
15662.4327798 
14838.0942725 
14013.755732 
13189.4171777 
12365.0786338 
11540.7401407 
10716.4017747 
9892.06365625 
9067.72585718 
8243.38791493 
7419.04713725 
6594.69384068 
5770.29977874 
4945.79680476 
4121.04871304 
3295.92418816 
2470.70562637 
1648.25252025 
827.440271338 
416.529553728 
30264.4501084 
29799.9176945 
28855.7668972 
27894.3634219 
26930.8304692 
25967.7478095 
25005.3437728 
24043.3355244 
23081.5096903 
22119.7537965 
21158.0204507 
20196.2926612 
19234.565458 
18272.8378419 
17311.1098444 
16349.3816385 
15387.6533519 
14425.9250872 
13464.1970083 
12502.469489 
11540.7433288 
10579.019868 
9617.30012949 
8655.57999471 
7693.83290681 
6731.96038299 
5769.66963187 
4806.23525124 
3840.10812829 
2869.05800277 
1891.97998674 
931.752455039 
461.549620464 
</DataArray>
<DataArray type="Float64" Name="Nodal_sigma_yy" NumberOfComponents="1" format="ascii" >
116.525029623 
58.6619963909 
1.11283402622 
0.379759308172 
-0.501309760487 
-0.264346851602 
-0.136215435672 
-0.0541476719588 
-0.0188558982336 
-0.00519699206461 
-0.000899792719565 
0.000140076400839 
0.000232811150227 
0.000144985846646 
6.87388546794e-05 
2.58666548234e-05 
-2.32845604842e-06 
-4.65434450234e-05 
-0.000158015570037 
-0.000426537179806 
-0.000967048454186 
-0.00174274180688 
-0.00179207988788 
0.0031054477007 
0.0271491604585 
0.106620203067 
0.337006577331 
0.846386681632 
2.22093683547 
2.99674010283 
11.6640114884 
-114.824928308 
-250.240941345 
106.757598097 
61.5854629602 
9.27047254565 
0.721507507897 
-0.701509672278 
-0.565667371712 
-0.299583526896 
-0.128542222089 
-0.0466707974872 
-0.0139603489454 
-0.0029509631396 
-1.36119939498e-05 
0.000430346626331 
0.000308354989329 
0.000155256068524 
5.91123846903e-05 
-1.01003981854e-05 
-0.000119646170106 
-0.000383017751972 
-0.000984514293407 
-0.00210797516922 
-0.00342517890692 
-0.00215199309653 
0.0127574066102 
0.0752142860928 
0.272539674016 
0.795239937957 
1.9705338042 
4.18359775667 
6.55596124856 
1.91935675017 
-107.886411044 
-212.095783501 
79.7870341739 
54.9211566777 
17.562761076 
2.31287468802 
-0.768693861889 
-0.896632219281 
-0.517177657827 
-0.233231574781 
-0.0883440278191 
-0.0279170099172 
-0.00664197810914 
-0.000552798454976 
0.000597961733774 
0.000508047008765 
0.0002712355992 
0.00010438556626 
-2.54312237757e-05 
-0.00023239190412 
-0.000711145454318 
-0.00175415227824 
-0.00355949420006 
-0.0051660475032 
-0.000690567993928 
0.0314205126214 
0.15430800559 
0.523982804105 
1.45905425954 
3.43344142538 
6.48234012537 
7.86366189983 
-11.4452429684 
-83.2901678736 
-136.180532491 
41.921969824 
30.6399113201 
12.3527775796 
2.69233296741 
-0.366082625049 
-0.659509836449 
-0.411677999499 
-0.192639959095 
-0.0751769699784 
-0.0246083539054 
-0.00625540632122 
-0.00077151990218 
0.000385085250556 
0.000389119117202 
0.000217873628422 
8.45392155142e-05 
-2.52469920241e-05 
-0.000201135651174 
-0.00059723757159 
-0.0014302034489 
-0.00278296837986 
-0.00364342219599 
0.00134511098893 
0.0308927669176 
0.138134553566 
0.450322267732 
1.21516354559 
2.73683443158 
4.75154850969 
3.45612655737 
-10.8897010204 
-44.0089169856 
-65.106170286 
4.2064129957e-11 
3.29691829393e-11 
1.9511503524e-11 
1.23066001834e-11 
7.44648787077e-12 
2.55795384874e-12 
-3.05533376377e-12 
-6.79278855387e-12 
-7.84439180279e-12 
-3.41060513165e-13 
1.47863943312e-11 
3.06243919113e-12 
-3.69340114048e-11 
-5.99484906161e-11 
-6.22506490799e-11 
-2.55440113506e-11 
3.24718030242e-12 
-5.80513415116e-12 
6.85673740008e-12 
4.74500438941e-11 
2.09681161323e-11 
-7.43440864426e-11 
-9.2180485467e-11 
4.84714490767e-11 
1.33116628831e-10 
7.67030883253e-12 
-2.38280506437e-11 
2.77431411178e-11 
4.09414724345e-11 
9.45026279453e-11 
9.60747037482e-11 
-1.92086346829e-11 
-1.06275876988e-10 
-41.9219698239 
-30.6399113201 
-12.3527775796 
-2.69233296739 
0.366082625055 
0.659509836443 
0.411677999483 
0.192639959069 
0.0751769699579 
0.0246083538926 
0.00625540628849 
0.000771519841294 
-0.000385085334216 
-0.000389119213047 
-0.00021787369954 
-8.45392741411e-05 
2.52469237623e-05 
0.000201135578578 
0.000597237468426 
0.00143020340131 
0.00278296834725 
0.00364342210698 
-0.00134511103877 
-0.0308927669112 
-0.13813455353 
-0.450322267769 
-1.21516354561 
-2.73683443156 
-4.7515485097 
-3.45612655727 
10.8897010205 
44.0089169856 
65.1061702859 
-79.7870341738 
-54.9211566777 
-17.5627610759 
-2.312874688 
0.768693861891 
0.89663221928 
0.517177657815 
0.233231574763 
0.0883440277947 
0.0279170098777 
0.00664197807811 
0.000552798431499 
-0.000597961756796 
-0.000508047066717 
-0.000271235699927 
-0.000104385675968 
2.54311344179e-05 
0.000232391831815 
0.000711145267672 
0.0017541519868 
0.00355949398391 
0.00516604744175 
0.000690567947117 
-0.0314205127186 
-0.154308005668 
-0.523982804164 
-1.45905425961 
-3.43344142551 
-6.48234012542 
-7.86366189965 
11.4452429687 
83.2901678738 
136.180532491 
-106.757598097 
-61.5854629601 
-9.27047254563 
-0.721507507893 
0.70150967228 
0.56566737171 
0.299583526893 
0.1285422221 
0.0466707974958 
0.0139603489381 
0.00295096315449 
1.36119937224e-05 
-0.000430346664132 
-0.000308355064362 
-0.000155256166295 
-5.91124181142e-05 
1.01004368389e-05 
0.000119646238147 
0.000383017796878 
0.000984514256459 
0.00210797509254 
0.00342517886588 
0.00215199297764 
-0.0127574067769 
-0.0752142862003 
-0.272539674032 
-0.795239937951 
-1.97053380427 
-4.18359775677 
-6.55596124856 
-1.91935674992 
107.886411044 
212.095783501 
-116.525029623 
-58.6619963909 
-1.11283402622 
-0.379759308173 
0.501309760482 
0.264346851586 
0.136215435665 
0.0541476719764 
0.0188558982743 
0.0051969921044 
0.000899792716382 
-0.000140076482239 
-0.000232811273236 
-0.000144985952602 
-6.87388665028e-05 
-2.58665684214e-05 
2.32856905313e-06 
4.65435921342e-05 
0.000158015813099 
0.000426537498697 
0.000967048625967 
0.00174274181836 
0.00179207982842 
-0.00310544792353 
-0.0271491607111 
-0.106620203071 
-0.337006577152 
-0.846386681514 
-2.22093683565 
-2.99674010319 
-11.6640114884 
114.824928308 
250.240941345 
</DataArray>
<DataArray type="Float64" Name="Nodal_sigma_xy" NumberOfComponents="1" format="ascii" >
-450.822291592 
-481.338429521 
-514.582489647 
-517.069448976 
-516.342628033 
-515.562567244 
-515.129552065 
-514.935704743 
-514.862254891 
-514.838970096 
-514.833389613 
-514.832900068 
-514.833384159 
-514.833801314 
-514.834026519 
-514.834124079 
-514.834149361 
-514.834103414 
-514.833901627 
-514.833308952 
-514.831856369 
-514.828921402 
-514.824700365 
-514.824312486 
-514.850798988 
-514.979535964 
-515.415611381 
-516.638251395 
-519.637969575 
-525.949671022 
-536.508271256 
-501.785197712 
-460.706237488 
-890.846852981 
-904.910243981 
-923.404501151 
-928.22930115 
-928.326256554 
-927.758184604 
-927.340414926 
-927.130053894 
-927.043052526 
-927.012683869 
-927.004102506 
-927.002539064 
-927.002708513 
-927.0030623 
-927.003288771 
-927.003394285 
-927.003418048 
-927.003352599 
-927.003101917 
-927.002425212 
-927.000908534 
-926.998235552 
-926.995694491 
-927.001550167 
-927.046517685 
-927.221406732 
-927.752496481 
-929.109897155 
-931.992705059 
-936.627344128 
-937.392993656 
-915.063386373 
-894.682947513 
-1623.8663397 
-1616.3909616 
-1610.69955651 
-1613.26468502 
-1614.14537131 
-1614.19298105 
-1614.09116712 
-1614.01419321 
-1613.97540848 
-1613.95944625 
-1613.95391052 
-1613.95236179 
-1613.9520879 
-1613.95212439 
-1613.95219062 
-1613.95222902 
-1613.95223427 
-1613.95219553 
-1613.95207355 
-1613.95179343 
-1613.95129293 
-1613.95079515 
-1613.95178842 
-1613.95986751 
-1613.99169974 
-1614.08903923 
-1614.3378013 
-1614.85425111 
-1615.54141811 
-1614.91060131 
-1608.18641369 
-1611.9495533 
-1621.45898914 
-2062.27814702 
-2048.21475602 
-2029.72049885 
-2024.89569885 
-2024.79874344 
-2025.36681539 
-2025.78458507 
-2025.9949461 
-2026.08194747 
-2026.11231613 
-2026.12089749 
-2026.12246093 
-2026.12229149 
-2026.1219377 
-2026.12171123 
-2026.12160571 
-2026.12158195 
-2026.1216474 
-2026.12189808 
-2026.12257479 
-2026.12409146 
-2026.12676445 
-2026.12930551 
-2026.12344983 
-2026.07848231 
-2025.90359327 
-2025.37250352 
-2024.01510284 
-2021.13229494 
-2016.49765587 
-2015.73200634 
-2038.06161363 
-2058.44205249 
-2207.695029 
-2192.12964728 
-2170.26839733 
-2162.65118098 
-2161.61662934 
-2162.30147065 
-2162.93811369 
-2163.28590883 
-2163.43692814 
-2163.4921374 
-2163.50878935 
-2163.51237636 
-2163.51244004 
-2163.5119499 
-2163.51159224 
-2163.51141788 
-2163.51138209 
-2163.51150553 
-2163.51195127 
-2163.51310418 
-2163.51555777 
-2163.5194883 
-2163.5217228 
-2163.5059525 
-2163.41580153 
-2163.09238557 
-2162.15878603 
-2159.90324637 
-2155.5291942 
-2150.47912635 
-2153.36890136 
-2180.5656957 
-2202.62578424 
-2062.27814702 
-2048.21475602 
-2029.72049885 
-2024.89569885 
-2024.79874344 
-2025.36681539 
-2025.78458507 
-2025.9949461 
-2026.08194747 
-2026.11231613 
-2026.12089749 
-2026.12246093 
-2026.12229149 
-2026.1219377 
-2026.12171123 
-2026.12160571 
-2026.12158195 
-2026.1216474 
-2026.12189808 
-2026.12257479 
-2026.12409146 
-2026.12676445 
-2026.12930551 
-2026.12344983 
-2026.07848231 
-2025.90359327 
-2025.37250352 
-2024.01510284 
-2021.13229494 
-2016.49765587 
-2015.73200634 
-2038.06161363 
-2058.44205249 
-1623.8663397 
-1616.3909616 
-1610.69955651 
-1613.26468502 
-1614.14537131 
-1614.19298105 
-1614.09116712 
-1614.01419321 
-1613.97540848 
-1613.95944625 
-1613.95391052 
-1613.95236179 
-1613.9520879 
-1613.95212439 
-1613.95219062 
-1613.95222902 
-1613.95223427 
-1613.95219553 
-1613.95207355 
-1613.95179343 
-1613.95129293 
-1613.95079515 
-1613.95178842 
-1613.95986751 
-1613.99169974 
-1614.08903923 
-1614.33780129 
-1614.85425111 
-1615.54141811 
-1614.91060131 
-1608.18641369 
-1611.9495533 
-1621.45898914 
-890.846852981 
-904.910243981 
-923.404501151 
-928.22930115 
-928.326256554 
-927.758184604 
-927.340414926 
-927.130053894 
-927.043052526 
-927.012683869 
-927.004102506 
-927.002539064 
-927.002708513 
-927.0030623 
-927.003288771 
-927.003394285 
-927.003418048 
-927.003352599 
-927.003101917 
-927.002425212 
-927.000908534 
-926.998235552 
-926.995694491 
-927.001550167 
-927.046517685 
-927.221406732 
-927.752496481 
-929.109897155 
-931.992705059 
-936.627344128 
-937.392993656 
-915.063386374 
-894.682947514 
-450.822291592 
-481.338429521 
-514.582489647 
-517.069448976 
-516.342628033 
-515.562567244 
-515.129552065 
-514.935704743 
-514.862254891 
-514.838970096 
-514.833389613 
-514.832900068 
-514.833384159 
-514.833801314 
-514.834026519 
-514.834124079 
-514.834149361 
-514.834103414 
-514.833901627 
-514.833308952 
-514.831856369 
-514.828921402 
-514.824700366 
-514.824312486 
-514.850798988 
-514.979535964 
-515.415611381 
-516.638251395 
-519.637969575 
-525.949671022 
-536.508271256 
-501.785197712 
-460.706237488 
</DataArray>
</PointData>
<CellData>
</CellData>
<Points>
<DataArray type="Float64" Name="Points" NumberOfComponents="3" format="ascii">
0.0 -2.0 0.0
0.5 -2.0 0.0
1.0 -2.0 0.0
1.5 -2.0 0.0
2.0 -2.0 0.0
2.5 -2.0 0.0
3.0 -2.0 0.0
3.5 -2.0 0.0
4.0 -2.0 0.0
4.5 -2.0 0.0
5.0 -2.0 0.0
5.5 -2.0 0.0
6.0 -2.0 0.0
6.5 -2.0 0.0
7.0 -2.0 0.0
7.5 -2.0 0.0
8.0 -2.0 0.0
8.5 -2.0 0.0
9.0 -2.0 0.0
9.5 -2.0 0.0
10.0 -2.0 0.0
10.5 -2.0 0.0
11.0 -2.0 0.0
11.5 -2.0 0.0
12.0 -2.0 0.0
12.5 -2.0 0.0
13.0 -2.0 0.0
13.5 -2.0 0.0
14.0 -2.0 0.0
14.5 -2.0 0.0
15.0 -2.0 0.0
15.5 -2.0 0.0
16.0 -2.0 0.0
0.0 -1.5 0.0
0.5 -1.5 0.0
1.0 -1.5 0.0
1.5 -1.5 0.0
2.0 -1.5 0.0
2.5 -1.5 0.0
3.0 -1.5 0.0
3.5 -1.5 0.0
4.0 -1.5 0.0
4.5 -1.5 0.0
5.0 -1.5 0.0
5.5 -1.5 0.0
6.0 -1.5 0.0
6.5 -1.5 0.0
7.0 -1.5 0.0
7.5 -1.5 0.0
8.0 -1.5 0.0
8.5 -1.5 0.0
9.0 -1.5 0.0
9.5 -1.5 0.0
10.0 -1.5 0.0
10.5 -1.5 0.0
11.0 -1.5 0.0
11.5 -1.5 0.0
12.0 -1.5 0.0
12.5 -1.5 0.0
13.0 -1.5 0.0
13.5 -1.5 0.0
14.0 -1.5 0.0
14.5 -1.5 0.0
15.0 -1.5 0.0
15.5 -1.5 0.0
16.0 -1.5 0.0
0.0 -1.0 0.0
0.5 -1.0 0.0
1.0 -1.0 0.0
1.5 -1.0 0.0
2.0 -1.0 0.0
2.5 -1.0 0.0
3.0 -1.0 0.0
3.5 -1.0 0.0
4.0 -1.0 0.0
4.5 -1.0 0.0
5.0 -1.0 0.0
5.5 -1.0 0.0
6.0 -1.0 0.0
6.5 -1.0 0.0
7.0 -1.0 0.0
7.5 -1.0 0.0
8.0 -1.0 0.0
8.5 -1.0 0.0
9.0 -1.0 0.0
9.5 -1.0 0.0
10.0 -1.0 0.0
10.5 -1.0 0.0
11.0 -1.0 0.0
11.5 -1.0 0.0
12.0 -1.0 0.0
12.5 -1.0 0.0
13.0 -1.0 0.0
13.5 -1.0 0.0
14.0 -1.0 0.0
14.5 -1.0 0.0
15.0 -1.0 0.0
15.5 -1.0 0.0
16.0 -1.0 0.0
0.0 -0.5 0.0
0.5 -0.5 0.0
1.0 -0.5 0.0
1.5 -0.5 0.0
2.0 -0.5 0.0
2.5 -0.5 0.0
3.0 -0.5 0.0
3.5 -0.5 0.0
4.0 -0.5 0.0
4.5 -0.5 0.0
5.0 -0.5 0.0
5.5 -0.5 0.0
6.0 -0.5 0.0
6.5 -0.5 0.0
7.0 -0.5 0.0
7.5 -0.5 0.0
8.0 -0.5 0.0
8.5 -0.5 0.0
9.0 -0.5 0.0
9.5 -0.5 0.0
10.0 -0.5 0.0
10.5 -0.5 0.0
11.0 -0.5 0.0
11.5 -0.5 0.0
12.0 -0.5 0.0
12.5 -0.5 0.0
13.0 -0.5 0.0
13.5 -0.5 0.0
14.0 -0.5 0.0
14.5 -0.5 0.0
15.0 -0.5 0.0
15.5 -0.5 0.0
16.0 -0.5 0.0
0.0 0.0 0.0
0.5 0.0 0.0
1.0 0.0 0.0
1.5 0.0 0.0
2.0 0.0 0.0
2.5 0.0 0.0
3.0 0.0 0.0
3.5 0.0 0.0
4.0 0.0 0.0
4.5 0.0 0.0
5.0 0.0 0.0
5.5 0.0 0.0
6.0 0.0 0.0
6.5 0.0 0.0
7.0 0.0 0.0
7.5 0.0 0.0
8.0 0.0 0.0
8.5 0.0 0.0
9.0 0.0 0.0
9.5 0.0 0.0
10.0 0.0 0.0
10.5 0.0 0.0
11.0 0.0 0.0
11.5 0.0 0.0
12.0 0.0 0.0
12.5 0.0 0.0
13.0 0.0 0.0
13.5 0.0 0.0
14.0 0.0 0.0
14.5 0.0 0.0
15.0 0.0 0.0
15.5 0.0 0.0
16.0 0.0 0.0
0.0 0.5 0.0
0.5 0.5 0.0
1.0 0.5 0.0
1.5 0.5 0.0
2.0 0.5 0.0
2.5 0.5 0.0
3.0 0.5 0.0
3.5 0.5 0.0
4.0 0.5 0.0
4.5 0.5 0.0
5.0 0.5 0.0
5.5 0.5 0.0
6.0 0.5 0.0
6.5 0.5 0.0
7.0 0.5 0.0
7.5 0.5 0.0
8.0 0.5 0.0
8.5 0.5 0.0
9.0 0.5 0.0
9.5 0.5 0.0
10.0 0.5 0.0
10.5 0.5 0.0
11.0 0.5 0.0
11.5 0.5 0.0
12.0 0.5 0.0
12.5 0.5 0.0
13.0 0.5 0.0
13.5 0.5 0.0
14.0 0.5 0.0
14.5 0.5 0.0
15.0 0.5 0.0
15.5 0.5 0.0
16.0 0.5 0.0
0.0 1.0 0.0
0.5 1.0 0.0
1.0 1.0 0.0
1.5 1.0 0.0
2.0 1.0 0.0
2.5 1.0 0.0
3.0 1.0 0.0
3.5 1.0 0.0
4.0 1.0 0.0
4.5 1.0 0.0
5.0 1.0 0.0
5.5 1.0 0.0
6.0 1.0 0.0
6.5 1.0 0.0
7.0 1.0 0.0
7.5 1.0 0.0
8.0 1.0 0.0
8.5 1.0 0.0
9.0 1.0 0.0
9.5 1.0 0.0
10.0 1.0 0.0
10.5 1.0 0.0
11.0 1.0 0.0
11.5 1.0 0.0
12.0 1.0 0.0
12.5 1.0 0.0
13.0 1.0 0.0
13.5 1.0 0.0
14.0 1.0 0.0
14.5 1.0 0.0
15.0 1.0 0.0
15.5 1.0 0.0
16.0 1.0 0.0
0.0 1.5 0.0
0.5 1.5 0.0
1.0 1.5 0.0
1.5 1.5 0.0
2.0 1.5 0.0
2.5 1.5 0.0
3.0 1.5 0.0
3.5 1.5 0.0
4.0 1.5 0.0
4.5 1.5 0.0
5.0 1.5 0.0
5.5 1.5 0.0
6.0 1.5 0.0
6.5 1.5 0.0
7.0 1.5 0.0
7.5 1.5 0.0
8.0 1.5 0.0
8.5 1.5 0.0
9.0 1.5 0.0
9.5 1.5 0.0
10.0 1.5 0.0
10.5 1.5 0.0
11.0 1.5 0.0
11.5 1.5 0.0
12.0 1.5 0.0
12.5 1.5 0.0
13.0 1.5 0.0
13.5 1.5 0.0
14.0 1.5 0.0
14.5 1.5 0.0
15.0 1.5 0.0
15.5 1.5 0.0
16.0 1.5 0.0
0.0 2.0 0.0
0.5 2.0 0.0
1.0 2.0 0.0
1.5 2.0 0.0
2.0 2.0 0.0
2.5 2.0 0.0
3.0 2.0 0.0
3.5 2.0 0.0
4.0 2.0 0.0
4.5 2.0 0.0
5.0 2.0 0.0
5.5 2.0 0.0
6.0 2.0 0.0
6.5 2.0 0.0
7.0 2.0 0.0
7.5 2.0 0.0
8.0 2.0 0.0
8.5 2.0 0.0
9.0 2.0 0.0
9.5 2.0 0.0
10.0 2.0 0.0
10.5 2.0 0.0
11.0 2.0 0.0
11.5 2.0 0.0
12.0 2.0 0.0
12.5 2.0 0.0
13.0 2.0 0.0
13.5 2.0 0.0
14.0 2.0 0.0
14.5 2.0 0.0
15.0 2.0 0.0
15.5 2.0 0.0
16.0 2.0 0.0
</DataArray>
</Points>
<Cells>
<DataArray type="Int64" Name="connectivity" format="ascii">
0 1 34 33 
1 2 35 34 
2 3 36 35 
3 4 37 36 
4 5 38 37 
5 6 39 38 
6 7 40 39 
7 8 41 40 
8 9 42 41 
9 10 43 42 
10 11 44 43 
11 12 45 44 
12 13 46 45 
13 14 47 46 
14 15 48 47 