<?xml version="1.0"?>
<VTKFile type="UnstructuredGrid" version="0.1" byte_order="LittleEndian" compressor="vtkZLibDataCompressor">
<UnstructuredGrid>
<Piece NumberOfPoints="297" NumberOfCells="256">
<PointData>
<DataArray type="Float64" Name="displacement" NumberOfComponents="3" format="ascii" >
0.0 -0.0162  0.
-0.0259283693465 -0.0217903590237  0.
-0.0510829234598 -0.0339417557758  0.
-0.075412133451 -0.0522985053069  0.
-0.0989111654623 -0.0766427239179  0.
-0.121582712866 -0.106759560113  0.
-0.14342846583 -0.14244113709  0.
-0.164449324321 -0.183480837669  0.
-0.184645662251 -0.229672543803  0.
-0.204017615757 -0.280810212168  0.
-0.222565225155 -0.336687795095  0.
-0.240288498901 -0.397099227551  0.
-0.257187436965 -0.461838433378  0.
-0.273262038069 -0.530699331016  0.
-0.288512301309 -0.603475836743  0.
-0.302938226231 -0.679961866104  0.
-0.316539812644 -0.759951334431  0.
-0.329317060496 -0.843238156989  0.
-0.341269969861 -0.929616248974  0.
-0.352398541102 -1.01887952551  0.
-0.362702775338 -1.11082190181  0.
-0.372182675446 -1.20523729408  0.
-0.380838247613 -1.30191962266  0.
-0.38866950198 -1.40066282095  0.
-0.395676445218 -1.50126085654  0.
-0.401859041434 -1.60350777365  0.
-0.407217072955 -1.70719774364  0.
-0.411749753383 -1.81212507938  0.
-0.415454716791 -1.91808366455  0.
-0.418326039485 -2.02486593884  0.
-0.420348679688 -2.13224997295  0.
-0.421499299853 -2.24000493791  0.
-0.421787878726 -2.3474692404  0.
0.001698046875 -0.0091125  0.
-0.0178226952045 -0.0150840689305  0.
-0.0366715785455 -0.027445924048  0.
-0.0549072333423 -0.0460229301461  0.
-0.0725267685922 -0.0705836396096  0.
-0.0895286941559 -0.100917060398  0.
-0.105912473741 -0.136815040842  0.
-0.121677991426 -0.178071129132  0.
-0.13682523516 -0.224479217596  0.
-0.15135421209 -0.275833270965  0.
-0.165264928969 -0.331927240882  0.
-0.178557389488 -0.392555061474  0.
-0.191231595268 -0.45751065593  0.
-0.203287546904 -0.526587942378  0.
-0.21472524458 -0.599580836973  0.
-0.225544688338 -0.676283255214  0.
-0.235745878184 -0.756489112427  0.
-0.245328814126 -0.839992323876  0.
-0.254293496186 -0.926586804765  0.
-0.262639924403 -1.01606647021  0.
-0.270368098793 -1.10822523536  0.
-0.277478019174 -1.20285701618  0.
-0.283969684553 -1.29975573225  0.
-0.289843091417 -1.39871531493  0.
-0.295098229727 -1.49952972768  0.
-0.299735075117 -1.60199300632  0.
-0.303753579097 -1.70589932295  0.
-0.30715367537 -1.8110429744  0.
-0.309935402763 -1.91721814431  0.
-0.312099712496 -2.02421632417  0.
-0.313651310941 -2.1318235801  0.
-0.314612889698 -2.23976956425  0.
-0.314904026832 -2.34787227814  0.
0.001940625 -0.00405  0.
-0.0110833366938 -0.0102507662212  0.
-0.0236653781953 -0.0228062315043  0.
-0.0358208365591 -0.0415414277986  0.
-0.0475643189181 -0.0662571949294  0.
-0.0588971120589 -0.0967445928789  0.
-0.0698187848478 -0.132796736113  0.
-0.0803288014524 -0.174207173967  0.
-0.0904268571468 -0.220769736557  0.
-0.100112814951 -0.272278321306  0.
-0.109386623081 -0.328526845352  0.
-0.118248265207 -0.389309227552  0.
-0.126697737453 -0.454419385558  0.
-0.134735039505 -0.523651235815  0.
-0.142360171718 -0.596798694111  0.
-0.149573134391 -0.673655675946  0.
-0.156373927674 -0.754016096706  0.
-0.162762551596 -0.837673871738  0.
-0.16873900604 -0.924422916378  0.
-0.174303290592 -1.014057146  0.
-0.179455404226 -1.10637047614  0.
-0.184195344847 -1.20115682299  0.
-0.188523109408 -1.29821010451  0.
-0.192438697445 -1.397324243  0.
-0.195942127242 -1.49829316919  0.
-0.19903348902 -1.60091082609  0.
-0.201713090008 -1.70497115126  0.
-0.203981788826 -1.810268006  0.
-0.20584163808 -1.91659469279  0.
-0.207296504077 -2.0237431906  0.
-0.208351893316 -2.13149783528  0.
-0.208989859268 -2.2396535908  0.
-0.209177708583 -2.34808199826  0.
0.001212890625 -0.0010125  0.
-0.00530187361676 -0.00734122141455  0.
-0.0115956922594 -0.0200146851558  0.
-0.0176753059036 -0.0388524717243  0.
-0.0235464690092 -0.0636620125768  0.
-0.0292122024065 -0.0942416974586  0.
-0.0346726533406 -0.130386042963  0.
-0.0399274902935 -0.171888922436  0.
-0.0449764543619 -0.2185440902  0.
-0.0498194135949 -0.270145363523  0.
-0.0544563132118 -0.326486610231  0.
-0.0588871340479 -0.387361726975  0.
-0.0631118706728 -0.452564622847  0.
-0.0671305220894 -0.521889211562  0.
-0.0709430883996 -0.595129408243  0.
-0.0745495698225 -0.672079128328  0.
-0.0779499664873 -0.752532287279  0.
-0.081144278411 -0.836282800561  0.
-0.0841325054597 -0.9231245837  0.
-0.0869146472163 -1.01285155241  0.
-0.0894907027309 -1.10525762272  0.
-0.0918606703315 -1.20013671078  0.
-0.0940245484512 -1.29728273135  0.
-0.0959823408641 -1.3964895915  0.
-0.0977340760895 -1.49755117133  0.
-0.0992798646471 -1.60026127274  0.
-0.100620041066 -1.70441351354  0.
-0.101755452368 -1.80980112407  0.
-0.102687825819 -1.91621689641  0.
-0.103419526409 -2.02345341421  0.
-0.103948438025 -2.13130860306  0.
-0.104264417762 -2.23960148563  0.
-0.104357759288 -2.34818407643  0.
0.0 0.0  0.
8.13961312703e-17 -0.00637027219032  0.
1.68625916307e-16 -0.019082974961  0.
2.59576004555e-16 -0.0379556794189  0.
3.5184272898e-16 -0.0627970998274  0.
4.45337867246e-16 -0.0934075097219  0.
5.39492532846e-16 -0.129582548075  0.
6.33445737422e-16 -0.171116201412  0.
7.26993077164e-16 -0.217802219217  0.
8.21084208916e-16 -0.269434380977  0.
9.13367802703e-16 -0.325806532621  0.
1.01166997076e-15 -0.386712560149  0.
1.10386568819e-15 -0.451946368521  0.
1.19899370832e-15 -0.521301870076  0.
1.28537504573e-15 -0.594572979585  0.
1.38187556369e-15 -0.671553612441  0.
1.47332631197e-15 -0.75203768414  0.
1.56027262198e-15 -0.835819110197  0.
1.64551207033e-15 -0.922691806231  0.
1.73596548666e-15 -1.01244968811  0.
1.79209527133e-15 -1.10488667205  0.
1.88438445169e-15 -1.19979667411  0.
2.00331614525e-15 -1.29697360727  0.
2.08366459354e-15 -1.39621137092  0.
2.1743466124e-15 -1.49730381999  0.
2.21972778146e-15 -1.60004469062  0.
2.23309099143e-15 -1.70422744483  0.
2.21769126828e-15 -1.80964507697  0.
2.24267197015e-15 -1.9160900789  0.
2.25367699548e-15 -2.02335654496  0.
2.21145453351e-15 -2.13124742611  0.
2.29030237357e-15 -2.23958557119  0.
2.34356801309e-15 -2.34821539801  0.
-0.001212890625 -0.0010125  0.
0.00530187361677 -0.00734122141455  0.
0.0115956922594 -0.0200146851558  0.
0.0176753059036 -0.0388524717243  0.
0.0235464690092 -0.0636620125768  0.
0.0292122024065 -0.0942416974586  0.
0.0346726533406 -0.130386042963  0.
0.0399274902935 -0.171888922436  0.
0.0449764543619 -0.2185440902  0.
0.0498194135949 -0.270145363523  0.
0.0544563132118 -0.326486610231  0.
0.0588871340479 -0.387361726975  0.
0.0631118706728 -0.452564622847  0.
0.0671305220894 -0.521889211562  0.
0.0709430883996 -0.595129408243  0.
0.0745495698225 -0.672079128328  0.
0.0779499664874 -0.752532287279  0.
0.081144278411 -0.836282800561  0.
0.0841325054597 -0.9231245837  0.
0.0869146472163 -1.01285155241  0.
0.0894907027309 -1.10525762272  0.
0.0918606703315 -1.20013671078  0.
0.0940245484512 -1.29728273135  0.
0.0959823408641 -1.3964895915  0.
0.0977340760895 -1.49755117133  0.
0.0992798646471 -1.60026127274  0.
0.100620041066 -1.70441351354  0.
0.101755452368 -1.80980112407  0.
0.102687825819 -1.91621689641  0.
0.103419526409 -2.02345341421  0.
0.103948438025 -2.13130860306  0.
0.104264417762 -2.23960148563  0.
0.104357759288 -2.34818407643  0.
-0.001940625 -0.00405  0.
0.0110833366938 -0.0102507662212  0.
0.0236653781953 -0.0228062315043  0.
0.0358208365591 -0.0415414277986  0.
0.0475643189181 -0.0662571949294  0.
0.0588971120589 -0.0967445928789  0.
0.0698187848478 -0.132796736113  0.
0.0803288014524 -0.174207173967  0.
0.0904268571468 -0.220769736557  0.
0.100112814951 -0.272278321306  0.
0.109386623081 -0.328526845352  0.
0.118248265207 -0.389309227552  0.
0.126697737453 -0.454419385558  0.
0.134735039505 -0.523651235815  0.
0.142360171718 -0.596798694111  0.
0.149573134391 -0.673655675946  0.
0.156373927674 -0.754016096706  0.
0.162762551596 -0.837673871738  0.
0.16873900604 -0.924422916378  0.
0.174303290592 -1.014057146  0.
0.179455404226 -1.10637047614  0.
0.184195344847 -1.20115682299  0.
0.188523109408 -1.29821010451  0.
0.192438697445 -1.397324243  0.
0.195942127242 -1.49829316919  0.
0.19903348902 -1.60091082609  0.
0.201713090008 -1.70497115126  0.
0.203981788826 -1.810268006  0.
0.20584163808 -1.91659469279  0.
0.207296504077 -2.0237431906  0.
0.208351893316 -2.13149783528  0.
0.208989859268 -2.2396535908  0.
0.209177708583 -2.34808199826  0.
-0.001698046875 -0.0091125  0.
0.0178226952045 -0.0150840689305  0.
0.0366715785455 -0.027445924048  0.
0.0549072333423 -0.0460229301461  0.
0.0725267685922 -0.0705836396096  0.
0.0895286941559 -0.100917060398  0.
0.105912473741 -0.136815040842  0.
0.121677991426 -0.178071129132  0.
0.13682523516 -0.224479217596  0.
0.15135421209 -0.275833270965  0.
0.165264928969 -0.331927240882  0.
0.178557389488 -0.392555061474  0.
0.191231595268 -0.45751065593  0.
0.203287546904 -0.526587942378  0.
0.21472524458 -0.599580836973  0.
0.225544688338 -0.676283255214  0.
0.235745878184 -0.756489112427  0.
0.245328814126 -0.839992323876  0.
0.254293496186 -0.926586804765  0.
0.262639924403 -1.01606647021  0.
0.270368098793 -1.10822523536  0.
0.277478019174 -1.20285701618  0.
0.283969684553 -1.29975573225  0.
0.289843091417 -1.39871531493  0.
0.295098229727 -1.49952972768  0.
0.299735075117 -1.60199300632  0.
0.303753579097 -1.70589932295  0.
0.30715367537 -1.8110429744  0.
0.309935402763 -1.91721814431  0.
0.312099712496 -2.02421632417  0.
0.313651310941 -2.1318235801  0.
0.314612889698 -2.23976956425  0.
0.314904026832 -2.34787227814  0.
0.0 -0.0162  0.
0.0259283693465 -0.0217903590237  0.
0.0510829234598 -0.0339417557758  0.
0.075412133451 -0.0522985053069  0.
0.0989111654623 -0.0766427239179  0.
0.121582712866 -0.106759560113  0.
0.14342846583 -0.14244113709  0.
0.164449324321 -0.183480837669  0.
0.184645662251 -0.229672543803  0.
0.204017615757 -0.280810212168  0.
0.222565225155 -0.336687795095  0.
0.240288498901 -0.397099227551  0.
0.257187436965 -0.461838433378  0.
0.273262038069 -0.530699331016  0.
0.288512301309 -0.603475836743  0.
0.302938226231 -0.679961866104  0.
0.316539812644 -0.759951334431  0.
0.329317060496 -0.843238156989  0.
0.341269969861 -0.929616248974  0.
0.352398541102 -1.01887952551  0.
0.362702775338 -1.11082190181  0.
0.372182675446 -1.20523729408  0.
0.380838247614 -1.30191962266  0.
0.38866950198 -1.40066282095  0.
0.395676445218 -1.50126085654  0.
0.401859041434 -1.60350777365  0.
0.407217072955 -1.70719774364  0.
0.411749753383 -1.81212507938  0.
0.415454716791 -1.91808366455  0.
0.418326039485 -2.02486593884  0.
0.420348679688 -2.13224997295  0.
0.421499299853 -2.24000493791  0.
0.421787878726 -2.3474692404  0.
</DataArray>
<DataArray type="Float64" Name="Nodal_sigma_xx" NumberOfComponents="1" format="ascii" >
-45396.6751626 
-44699.8765418 
-43283.6503459 
-41841.5451329 
-40396.2457038 
-38951.6217143 
-37508.0156592 
-36065.0032865 
-34622.2645355 
-33179.6306948 
-31737.030676 
-30294.4389918 
-28851.8481871 
-27409.2567628 
-25966.6647667 
-24524.0724577 
-23081.4800278 
-21638.8876308 
-20196.2955125 
-18753.7042335 
-17311.1149931 
-15868.529802 
-14425.9501942 
-12983.3699921 
-11540.7493602 
-10097.9405745 
-8654.50444781 
-7209.35287686 
-5760.16219244 
-4303.58700416 
-2837.9699801 
-1397.62868256 
-692.324430696 
-38948.8666805 
-38329.3309157 
-37093.4133487 
-35859.0660263 
-34622.7598149 
-33386.048699 
-32149.3586596 
-30912.7557337 
-29676.2075676 
-28439.6853959 
-27203.1733771 
-25966.6647012 
-24730.1568807 
-23493.6491696 
-22257.1414088 
-21020.633598 
-19784.1257665 
-18547.6179507 
-17311.110211 
-16074.602662 
-14838.0954844 
-13601.5887858 
-12365.0818724 
-11128.5707059 
-9892.04076102 
-8655.44966811 
-7418.69520714 
-6181.57306956 
-4943.88628224 
-3706.05843955 
-2472.37878038 
-1241.16040701 
-624.794330593 
-26005.8106891 
-25572.8391534 
-24725.3392963 
-23899.9212669 
-23078.0729913 
-22255.6088193 
-21432.2237159 
-20608.2817139 
-19784.0824953 
-18959.7836944 
-18135.4525798 
-17311.1133746 
-16486.7732443 
-15662.4336638 
-14838.0946125 
-14013.7558539 
-13189.4172086 
-12365.078531 
-11540.7395882 
-10716.3998518 
-9892.05820123 
-9067.71278597 
-8243.36230348 
-7419.0129807 
-6594.70321965 
-5770.57417767 
-4947.04032198 
-4125.13109194 
-3306.9683644 
-2495.71906618 
-1691.34509356 
-865.89749757 
-441.369884147 
-13007.8802023 
-12792.0042809 
-12365.5323598 
-11948.9120058 
-11537.6818636 
-11127.0054276 
-10715.751547 
-10304.0052734 
-9891.99885485 
-9479.88198236 
-9067.72560549 
-8655.55767057 
-8243.38742202 
-7831.21725464 
-7419.04748992 
-7006.87799476 
-6594.70860705 
-6182.53916811 
-5770.36942029 
-5358.19882566 
-4946.02637378 
-4533.85079529 
-4121.67281047 
-3709.50437582 
-3297.39762468 
-2885.52053488 
-2474.32198818 
-2064.79781899 
-1658.57763685 
-1256.31465511 
-850.684839668 
-430.91846073 
-216.563959462 
1.75987224793e-10 
1.79170456249e-10 
1.84400050784e-10 
1.87355908565e-10 
1.88492776942e-10 
1.88720150618e-10 
1.86673787539e-10 
1.84172677109e-10 
1.90539140021e-10 
1.96905602934e-10 
1.86901161214e-10 
1.73031367012e-10 
1.80989445653e-10 
1.94177118829e-10 
1.85082171811e-10 
1.67233338288e-10 
1.64050106832e-10 
1.6166268324e-10 
1.68029146153e-10 
1.65300662047e-10 
1.42335920827e-10 
1.46656020661e-10 
1.42961198435e-10 
1.29659838422e-10 
1.24089183373e-10 
1.08627773443e-10 
9.03810359887e-11 
1.027729013e-10 
1.53050905283e-10 
1.57086788022e-10 
6.53699316899e-11 
-8.97948382317e-11 
-1.77287518e-10 
13007.8802023 
12792.0042809 
12365.5323598 
11948.9120058 
11537.6818636 
11127.0054276 
10715.751547 
10304.0052734 
9891.99885485 
9479.88198236 
9067.72560549 
8655.55767057 
8243.38742202 
7831.21725464 
7419.04748992 
7006.87799476 
6594.70860705 
6182.53916811 
5770.36942029 
5358.19882566 
4946.02637378 
4533.85079529 
4121.67281047 
3709.50437582 
3297.39762468 
2885.52053488 
2474.32198818 
2064.79781899 
1658.57763685 
1256.31465511 
850.684839668 
430.91846073 
216.563959462 
26005.8106891 
25572.8391534 
24725.3392963 
23899.9212669 
23078.0729913 
22255.6088193 
21432.2237159 
20608.2817139 
19784.0824953 
18959.7836944 
18135.4525798 
17311.1133746 
16486.7732443 
15662.4336638 
14838.0946125 
14013.7558539 
13189.4172086 
12365.078531 
11540.7395882 
10716.3998518 
9892.05820123 
9067.71278597 
8243.36230348 
7419.0129807 
6594.70321965 
5770.57417767 
4947.04032198 
4125.13109194 
3306.9683644 
2495.71906618 
1691.34509356 
865.89749757 
441.369884147 
38948.8666805 
38329.3309157 
37093.4133487 
35859.0660263 
34622.7598149 
33386.048699 
32149.3586596 
30912.7557337 
29676.2075676 
28439.6853959 
27203.1733771 
25966.6647012 
24730.1568807 
23493.6491696 
22257.1414088 
21020.633598 
19784.1257665 
18547.6179507 
17311.110211 
16074.602662 
14838.0954844 
13601.5887858 
12365.0818724 
11128.5707059 
9892.04076102 
8655.44966811 
7418.69520714 
6181.57306956 
4943.88628224 
3706.05843955 
2472.37878038 
1241.16040701 
624.794330592 
45396.6751626 
44699.8765418 
43283.6503459 
41841.5451329 
40396.2457038 
38951.6217143 
37508.0156592 
36065.0032865 
34622.2645355 
33179.6306948 
31737.030676 
30294.4389918 
28851.8481871 
27409.2567628 
25966.6647667 
24524.0724577 
23081.4800278 
21638.8876308 
20196.2955125 
18753.7042335 
17311.1149931 
15868.529802 
14425.9501942 
12983.3699921 
11540.7493602 
10097.9405745 
8654.50444781 
7209.35287686 
5760.16219244 
4303.58700416 
2837.9699801 
1397.62868256 
692.324430696 
</DataArray>
<DataArray type="Float64" Name="Nodal_sigma_yy" NumberOfComponents="1" format="ascii" >
174.787544433 
87.9929945858 
1.66925103932 
0.569638962262 
-0.751964640702 
-0.396520277374 
-0.204323153484 
-0.0812215079263 
-0.0282838473609 
-0.00779548810942 
-0.00134968910106 
0.000210114596939 
0.000349216812992 
0.000217478884679 
0.000103108320673 
3.8799945969e-05 
-3.49297079083e-06 
-6.98155170085e-05 
-0.000237023429236 
-0.000639805791707 
-0.00145057264581 
-0.00261411248425 
-0.00268811948422 
0.0046581718949 
0.0407237410922 
0.159930305161 
0.505509866418 
1.26958002261 
3.33140525346 
4.49511015474 
17.4960172328 
-172.237392462 
-375.361412018 
160.136397144 
92.3781944397 
13.9057088184 
1.08226126184 
-1.0522645084 
-0.848501057548 
-0.449375290324 
-0.192813333122 
-0.0700061962127 
-0.0209405233905 
-0.00442644472628 
-2.0418055442e-05 
0.000645519894874 
0.000462532460688 
0.000232884088859 
8.86685648993e-05 
-1.51506635575e-05 
-0.000179469300747 
-0.000574526585638 
-0.00147677133469 
-0.00316196260377 
-0.00513776826108 
-0.00322798949497 
0.0191361100918 
0.112821429225 
0.408809511153 
1.19285990708 
2.95580070635 
6.27539663501 
9.83394187272 
2.87903512485 
-161.829616566 
-318.143675251 
119.68055126 
82.3817350161 
26.3441416138 
3.469312032 
-1.15304079282 
-1.3449483289 
-0.775766486724 
-0.349847362178 
-0.132516041754 
-0.041875514876 
-0.00996296715567 
-0.000829197705002 
0.000896942545694 
0.000762070406154 
0.000406853294692 
0.000156578346207 
-3.8146738234e-05 
-0.000348587774397 
-0.00106671800995 
-0.00263122807968 
-0.00533924108521 
-0.00774907133555 
-0.0010358520781 
0.047130769047 
0.231462008484 
0.785974206008 
2.18858138908 
5.15016213814 
9.72351018819 
11.7954928495 
-17.1678644531 
-124.935251811 
-204.270798736 
62.8829547357 
45.9598669799 
18.5291663693 
4.03849945109 
-0.549123937569 
-0.989264754668 
-0.617516999255 
-0.288959938667 
-0.112765455009 
-0.0369125308742 
-0.0093831094884 
-0.00115727984527 
0.000577627957838 
0.000583678788331 
0.000326810492595 
0.000126808780209 
-3.78705358344e-05 
-0.000301703505158 
-0.000895856279328 
-0.0021453050378 
-0.00417445257857 
-0.00546513338301 
0.00201766634368 
0.0463391502293 
0.207201830404 
0.67548340168 
1.82274531823 
4.10525164731 
7.12732276477 
5.18418983625 
-16.3345515305 
-66.0133754786 
-97.6592554294 
4.26325641456e-11 
3.47881723428e-11 
1.98525640371e-11 
1.03881347968e-11 
3.70903308067e-12 
-3.33955085807e-12 
-6.57962573314e-12 
-1.06155084723e-11 
-5.24380538991e-12 
1.03739239421e-11 
-6.48014975013e-12 
-3.82556208933e-11 
-8.19966317067e-12 
1.65414348885e-11 
4.26325641456e-14 
-1.91562321561e-11 
-3.40065753335e-11 
-6.25419716016e-11 
-4.67110794489e-11 
2.18278728426e-11 
-4.06075173487e-11 
-1.50301104895e-10 
-1.514450787e-10 
-9.99165195026e-11 
-4.60644855593e-11 
3.25730553641e-11 
1.10363274075e-10 
2.52864396089e-10 
4.900018169e-10 
5.46719114425e-10 
1.86146209558e-10 
-3.600035825e-10 
-6.08299188798e-10 
-62.8829547356 
-45.9598669798 
-18.5291663692 
-4.03849945107 
0.549123937577 
0.989264754661 
0.617516999236 
0.288959938635 
0.112765454988 
0.0369125308765 
0.0093831094436 
0.00115727975205 
-0.000577628013218 
-0.000583678842219 
-0.000326810568325 
-0.000126808863996 
3.78704366852e-05 
0.000301703359796 
0.00089585620897 
0.00214530512159 
0.00417445253873 
0.00546513319559 
-0.00201766644365 
-0.0463391503157 
-0.207201830558 
-0.675483401904 
-1.82274531848 
-4.10525164727 
-7.12732276433 
-5.18418983563 
16.3345515307 
66.0133754782 
97.6592554286 
-119.68055126 
-82.381735016 
-26.3441416137 
-3.46931203199 
1.15304079283 
1.3449483289 
0.775766486712 
0.349847362149 
0.132516041708 
0.0418755148398 
0.00996296713282 
0.000829197673681 
-0.000896942610495 
-0.000762070592657 
-0.000406853506547 
-0.000156578468818 
3.81466820727e-05 
0.000348587758083 
0.00106671787569 
0.00263122784196 
0.00533924093318 
0.00774907125847 
0.0010358520251 
-0.0471307691379 
-0.231462008793 
-0.78597420641 
-2.18858138944 
-5.15016213841 
-9.72351018819 
-11.7954928494 
17.1678644531 
124.935251811 
204.270798736 
-160.136397144 
-92.3781944397 
-13.9057088184 
-1.08226126183 
1.05226450841 
0.84850105755 
0.449375290328 
0.19281333312 
0.0700061961893 
0.0209405233757 
0.00442644472969 
2.04180429364e-05 
-0.000645519913178 
-0.000462532528218 
-0.00023288418322 
-8.86686254944e-05 
1.51505576014e-05 
0.000179469265049 
0.000574526506284 
0.00147677107094 
0.00316196238379 
0.00513776814938 
0.0032279894736 
-0.0191361100963 
-0.112821429347 
-0.408809511163 
-1.19285990699 
-2.95580070638 
-6.27539663497 
-9.83394187257 
-2.87903512473 
161.829616566 
318.143675251 
-174.787544433 
-87.9929945858 
-1.66925103931 
-0.569638962244 
0.751964640725 
0.396520277383 
0.204323153492 
0.0812215079395 
0.028283847375 
0.0077954881358 
0.00134968907696 
-0.000210114669244 
-0.000349216814357 
-0.00021747878759 
-0.000103108237226 
-3.87999511986e-05 
3.49274091604e-06 
6.98153125995e-05 
0.000237023491763 
0.000639805863557 
0.00145057251143 
0.00261411234078 
0.00268811965043 
-0.00465817169504 
-0.0407237409348 
-0.159930304891 
-0.505509866241 
-1.26958002256 
-3.33140525347 
-4.4951101545 
-17.4960172325 
172.237392462 
375.361412017 
</DataArray>
<DataArray type="Float64" Name="Nodal_sigma_xy" NumberOfComponents="1" format="ascii" >
-676.233437389 
-722.007644281 
-771.873734471 
-775.604173465 
-774.513942049 
-773.343850866 
-772.694328098 
-772.403557114 
-772.293382337 
-772.258455144 
-772.25008442 
-772.249350102 
-772.250076239 
-772.250701971 
-772.251039778 
-772.251186118 
-772.251224042 
-772.251155121 
-772.25085244 
-772.249963428 
-772.247784553 
-772.243382104 
-772.237050548 
-772.236468729 
-772.276198481 
-772.469303946 
-773.123417071 
-774.957377092 
-779.456954362 
-788.924506533 
-804.762406884 
-752.677796569 
-691.059356232 
-1336.27027947 
-1357.36536597 
-1385.10675173 
-1392.34395173 
-1392.48938483 
-1391.63727691 
-1391.01062239 
-1390.69508084 
-1390.56457879 
-1390.5190258 
-1390.50615376 
-1390.5038086 
-1390.50406277 
-1390.50459345 
-1390.50493316 
-1390.50509143 
-1390.50512707 
-1390.5050289 
-1390.50465288 
-1390.50363782 
-1390.5013628 
-1390.49735333 
-1390.49354174 
-1390.50232525 
-1390.56977653 
-1390.8321101 
-1391.62874472 
-1393.66484573 
-1397.98905759 
-1404.94101619 
-1406.08949048 
-1372.59507956 
-1342.02442127 
-2435.79950955 
-2424.58644239 
-2416.04933477 
-2419.89702753 
-2421.21805697 
-2421.28947158 
-2421.13675068 
-2421.02128982 
-2420.96311273 
-2420.93916937 
-2420.93086577 
-2420.92854268 
-2420.92813185 
-2420.92818659 
-2420.92828593 
-2420.92834353 
-2420.92835141 
-2420.92829329 
-2420.92811033 
-2420.92769015 
-2420.92693939 
-2420.92619272 
-2420.92768263 
-2420.93980126 
-2420.98754961 
-2421.13355885 
-2421.50670194 
-2422.28137667 
-2423.31212717 
-2422.36590197 
-2412.27962054 
-2417.92432994 
-2432.18848371 
-3093.41722053 
-3072.32213403 
-3044.58074827 
-3037.34354827 
-3037.19811517 
-3038.05022309 
-3038.67687761 
-3038.99241916 
-3039.12292121 
-3039.16847419 
-3039.18134624 
-3039.1836914 
-3039.18343723 
-3039.18290655 
-3039.18256684 
-3039.18240857 
-3039.18237293 
-3039.1824711 
-3039.18284712 
-3039.18386218 
-3039.1861372 
-3039.19014667 
-3039.19395826 
-3039.18517475 
-3039.11772347 
-3038.8553899 
-3038.05875528 
-3036.02265427 
-3031.69844241 
-3024.74648381 
-3023.59800952 
-3057.09242044 
-3087.66307873 
-3311.5425435 
-3288.19447093 
-3255.40259599 
-3243.97677148 
-3242.42494402 
-3243.45220598 
-3244.40717053 
-3244.92886325 
-3245.15539221 
-3245.23820611 
-3245.26318403 
-3245.26856454 
-3245.26866005 
-3245.26792485 
-3245.26738837 
-3245.26712683 
-3245.26707313 
-3245.2672583 
-3245.2679269 
-3245.26965627 
-3245.27333666 
-3245.27923246 
-3245.28258419 
-3245.25892875 
-3245.1237023 
-3244.63857835 
-3243.23817904 
-3239.85486956 
-3233.29379131 
-3225.71868953 
-3230.05335204 
-3270.84854354 
-3303.93867635 
-3093.41722053 
-3072.32213403 
-3044.58074827 
-3037.34354827 
-3037.19811517 
-3038.05022309 
-3038.67687761 
-3038.99241916 
-3039.12292121 
-3039.16847419 
-3039.18134624 
-3039.1836914 
-3039.18343723 
-3039.18290655 
-3039.18256684 
-3039.18240857 
-3039.18237293 
-3039.1824711 
-3039.18284712 
-3039.18386218 
-3039.1861372 
-3039.19014667 
-3039.19395826 
-3039.18517475 
-3039.11772347 
-3038.8553899 
-3038.05875528 
-3036.02265427 
-3031.69844241 
-3024.74648381 
-3023.59800952 
-3057.09242044 
-3087.66307873 
-2435.79950955 
-2424.58644239 
-2416.04933477 
-2419.89702753 
-2421.21805697 
-2421.28947158 
-2421.13675068 
-2421.02128982 
-2420.96311273 
-2420.93916937 
-2420.93086577 
-2420.92854268 
-2420.92813185 
-2420.92818659 
-2420.92828593 
-2420.92834353 
-2420.92835141 
-2420.92829329 
-2420.92811033 
-2420.92769015 
-2420.92693939 
-2420.92619272 
-2420.92768263 
-2420.93980126 
-2420.98754961 
-2421.13355885 
-2421.50670194 
-2422.28137667 
-2423.31212717 
-2422.36590197 
-2412.27962054 
-2417.92432994 
-2432.18848371 
-1336.27027947 
-1357.36536597 
-1385.10675173 
-1392.34395173 
-1392.48938483 
-1391.63727691 
-1391.01062239 
-1390.69508084 
-1390.56457879 
-1390.5190258 
-1390.50615376 
-1390.5038086 
-1390.50406277 
-1390.50459345 
-1390.50493316 
-1390.50509143 
-1390.50512707 
-1390.5050289 
-1390.50465288 
-1390.50363782 
-1390.5013628 
-1390.49735333 
-1390.49354174 
-1390.50232525 
-1390.56977653 
-1390.8321101 
-1391.62874472 
-1393.66484573 
-1397.98905759 
-1404.94101619 
-1406.08949048 
-1372.59507956 
-1342.02442127 
-676.233437389 
-722.007644281 
-771.873734471 
-775.604173465 
-774.513942049 
-773.343850866 
-772.694328098 
-772.403557114 
-772.293382337 
-772.258455144 
-772.25008442 
-772.249350102 
-772.250076239 
-772.250701971 
-772.251039778 
-772.251186118 
-772.251224042 
-772.251155121 
-772.25085244 
-772.249963428 
-772.247784553 
-772.243382104 
-772.237050548 
-772.236468729 
-772.276198481 
-772.469303946 
-773.123417071 
-774.957377092 
-779.456954362 
-788.924506533 
-804.762406884 
-752.677796569 
-691.059356233 
</DataArray>
</PointData>
<CellData>
</CellData>
<Points>
<DataArray type="Float64" Name="Points" NumberOfComponents="3" format="ascii">
0.0 -2.0 0.0
0.5 -2.0 0.0
1.0 -2.0 0.0
1.5 -2.0 0.0
2.0 -2.0 0.0
2.5 -2.0 0.0
3.0 -2.0 0.0
3.5 -2.0 0.0
4.0 -2.0 0.0
4.5 -2.0 0.0
5.0 -2.0 0.0
5.5 -2.0 0.0
6.0 -2.0 0.0
6.5 -2.0 0.0
7.0 -2.0 0.0
7.5 -2.0 0.0
8.0 -2.0 0.0
8.5 -2.0 0.0
9.0 -2.0 0.0
9.5 -2.0 0.0
10.0 -2.0 0.0
10.5 -2.0 0.0
11.0 -2.0 0.0
11.5 -2.0 0.0
12.0 -2.0 0.0
12.5 -2.0 0.0
13.0 -2.0 0.0
13.5 -2.0 0.0
14.0 -2.0 0.0
14.5 -2.0 0.0
15.0 -2.0 0.0
15.5 -2.0 0.0
16.0 -2.0 0.0
0.0 -1.5 0.0
0.5 -1.5 0.0
1.0 -1.5 0.0
1.5 -1.5 0.0
2.0 -1.5 0.0
2.5 -1.5 0.0
3.0 -1.5 0.0
3.5 -1.5 0.0
4.0 -1.5 0.0
4.5 -1.5 0.0
5.0 -1.5 0.0
5.5 -1.5 0.0
6.0 -1.5 0.0
6.5 -1.5 0.0
7.0 -1.5 0.0
7.5 -1.5 0.0
8.0 -1.5 0.0
8.5 -1.5 0.0
9.0 -1.5 0.0
9.5 -1.5 0.0
10.0 -1.5 0.0
10.5 -1.5 0.0
11.0 -1.5 0.0
11.5 -1.5 0.0
12.0 -1.5 0.0
12.5 -1.5 0.0
13.0 -1.5 0.0
13.5 -1.5 0.0
14.0 -1.5 0.0
14.5 -1.5 0.0
15.0 -1.5 0.0
15.5 -1.5 0.0
16.0 -1.5 0.0
0.0 -1.0 0.0
0.5 -1.0 0.0
1.0 -1.0 0.0
1.5 -1.0 0.0
2.0 -1.0 0.0
2.5 -1.0 0.0
3.0 -1.0 0.0
3.5 -1.0 0.0
4.0 -1.0 0.0
4.5 -1.0 0.0
5.0 -1.0 0.0
5.5 -1.0 0.0
6.0 -1.0 0.0
6.5 -1.0 0.0
7.0 -1.0 0.0
7.5 -1.0 0.0
8.0 -1.0 0.0
8.5 -1.0 0.0
9.0 -1.0 0.0
9.5 -1.0 0.0
10.0 -1.0 0.0
10.5 -1.0 0.0
11.0 -1.0 0.0
11.5 -1.0 0.0
12.0 -1.0 0.0
12.5 -1.0 0.0
13.0 -1.0 0.0
13.5 -1.0 0.0
14.0 -1.0 0.0
14.5 -1.0 0.0
15.0 -1.0 0.0
15.5 -1.0 0.0
16.0 -1.0 0.0
0.0 -0.5 0.0
0.5 -0.5 0.0
1.0 -0.5 0.0
1.5 -0.5 0.0
2.0 -0.5 0.0
2.5 -0.5 0.0
3.0 -0.5 0.0
3.5 -0.5 0.0
4.0 -0.5 0.0
4.5 -0.5 0.0
5.0 -0.5 0.0
5.5 -0.5 0.0
6.0 -0.5 0.0
6.5 -0.5 0.0
7.0 -0.5 0.0
7.5 -0.5 0.0
8.0 -0.5 0.0
8.5 -0.5 0.0
9.0 -0.5 0.0
9.5 -0.5 0.0
10.0 -0.5 0.0
10.5 -0.5 0.0
11.0 -0.5 0.0
11.5 -0.5 0.0
12.0 -0.5 0.0
12.5 -0.5 0.0
13.0 -0.5 0.0
13.5 -0.5 0.0
14.0 -0.5 0.0
14.5 -0.5 0.0
15.0 -0.5 0.0
15.5 -0.5 0.0
16.0 -0.5 0.0
0.0 0.0 0.0
0.5 0.0 0.0
1.0 0.0 0.0
1.5 0.0 0.0
2.0 0.0 0.0
2.5 0.0 0.0
3.0 0.0 0.0
3.5 0.0 0.0
4.0 0.0 0.0
4.5 0.0 0.0
5.0 0.0 0.0
5.5 0.0 0.0
6.0 0.0 0.0
6.5 0.0 0.0
7.0 0.0 0.0
7.5 0.0 0.0
8.0 0.0 0.0
8.5 0.0 0.0
9.0 0.0 0.0
9.5 0.0 0.0
10.0 0.0 0.0
10.5 0.0 0.0
11.0 0.0 0.0
11.5 0.0 0.0
12.0 0.0 0.0
12.5 0.0 0.0
13.0 0.0 0.0
13.5 0.0 0.0
14.0 0.0 0.0
14.5 0.0 0.0
15.0 0.0 0.0
15.5 0.0 0.0
16.0 0.0 0.0
0.0 0.5 0.0
0.5 0.5 0.0
1.0 0.5 0.0
1.5 0.5 0.0
2.0 0.5 0.0
2.5 0.5 0.0
3.0 0.5 0.0
3.5 0.5 0.0
4.0 0.5 0.0
4.5 0.5 0.0
5.0 0.5 0.0
5.5 0.5 0.0
6.0 0.5 0.0
6.5 0.5 0.0
7.0 0.5 0.0
7.5 0.5 0.0
8.0 0.5 0.0
8.5 0.5 0.0
9.0 0.5 0.0
9.5 0.5 0.0
10.0 0.5 0.0
10.5 0.5 0.0
11.0 0.5 0.0
11.5 0.5 0.0
12.0 0.5 0.0
12.5 0.5 0.0
13.0 0.5 0.0
13.5 0.5 0.0
14.0 0.5 0.0
14.5 0.5 0.0
15.0 0.5 0.0
15.5 0.5 0.0
16.0 0.5 0.0
0.0 1.0 0.0
0.5 1.0 0.0
1.0 1.0 0.0
1.5 1.0 0.0
2.0 1.0 0.0
2.5 1.0 0.0
3.0 1.0 0.0
3.5 1.0 0.0
4.0 1.0 0.0
4.5 1.0 0.0
5.0 1.0 0.0
5.5 1.0 0.0
6.0 1.0 0.0
6.5 1.0 0.0
7.0 1.0 0.0
7.5 1.0 0.0
8.0 1.0 0.0
8.5 1.0 0.0
9.0 1.0 0.0
9.5 1.0 0.0
10.0 1.0 0.0
10.5 1.0 0.0
11.0 1.0 0.0
11.5 1.0 0.0
12.0 1.0 0.0
12.5 1.0 0.0
13.0 1.0 0.0
13.5 1.0 0.0
14.0 1.0 0.0
14.5 1.0 0.0
15.0 1.0 0.0
15.5 1.0 0.0
16.0 1.0 0.0
0.0 1.5 0.0
0.5 1.5 0.0
1.0 1.5 0.0
1.5 1.5 0.0
2.0 1.5 0.0
2.5 1.5 0.0
3.0 1.5 0.0
3.5 1.5 0.0
4.0 1.5 0.0
4.5 1.5 0.0
5.0 1.5 0.0
5.5 1.5 0.0
6.0 1.5 0.0
6.5 1.5 0.0
7.0 1.5 0.0
7.5 1.5 0.0
8.0 1.5 0.0
8.5 1.5 0.0
9.0 1.5 0.0
9.5 1.5 0.0
10.0 1.5 0.0
10.5 1.5 0.0
11.0 1.5 0.0
11.5 1.5 0.0
12.0 1.5 0.0
12.5 1.5 0.0
13.0 1.5 0.0
13.5 1.5 0.0
14.0 1.5 0.0
14.5 1.5 0.0
15.0 1.5 0.0
15.5 1.5 0.0
16.0 1.5 0.0
0.0 2.0 0.0
0.5 2.0 0.0
1.0 2.0 0.0
1.5 2.0 0.0
2.0 2.0 0.0
2.5 2.0 0.0
3.0 2.0 0.0
3.5 2.0 0.0
4.0 2.0 0.0
4.5 2.0 0.0
5.0 2.0 0.0
5.5 2.0 0.0
6.0 2.0 0.0
6.5 2.0 0.0
7.0 2.0 0.0
7.5 2.0 0.0
8.0 2.0 0.0
8.5 2.0 0.0
9.0 2.0 0.0
9.5 2.0 0.0
10.0 2.0 0.0
10.5 2.0 0.0
11.0 2.0 0.0
11.5 2.0 0.0
12.0 2.0 0.0
12.5 2.0 0.0
13.0 2.0 0.0
13.5 2.0 0.0
14.0 2.0 0.0
14.5 2.0 0.0
15.0 2.0 0.0
15.5 2.0 0.0
16.0 2.0 0.0
</DataArray>
</Points>
<Cells>
<DataArray type="Int64" Name="connectivity" format="ascii">
0 1 34 33 
1 2 35 34 
2 3 36 35 
3 4 37 36 
4 5 38 37 
5 6 39 38 
6 7 40 39 
7 8 41 40 
8 9 42 41 
9 10 43 42 
10 11 44 43 
11 12 45 44 
12 13 46 45 
13 14 47 46 
14 15 48 47 
15 16 49 48 
16 17 50 49 
17 18 51 50 
18 19 52 51 
19 20 53 52 
20 21 54 53 
21 22 55 54 
22 23 56 55 
23 24 57 56 
24 25 58 57 