<?xml version="1.0"?>
<VTKFile type="UnstructuredGrid" version="0.1" byte_order="LittleEndian" compressor="vtkZLibDataCompressor">
<UnstructuredGrid>
<Piece NumberOfPoints="297" NumberOfCells="256">
<PointData>
<DataArray type="Float64" Name="displacement" NumberOfComponents="3" format="ascii" >
0.0 -0.0054  0.
-0.00864278978217 -0.00726345300791  0.
-0.0170276411533 -0.0113139185919  0.
-0.025137377817 -0.0174328351023  0.
-0.0329703884874 -0.0255475746393  0.
-0.0405275709554 -0.0355865200377  0.
-0.04780948861 -0.0474803790301  0.
-0.0548164414403 -0.061160279223  0.
-0.0615485540835 -0.076557514601  0.
-0.0680058719191 -0.0936034040558  0.
-0.0741884083849 -0.112229265032  0.
-0.0800961663004 -0.132366409183  0.
-0.085729145655 -0.153946144459  0.
-0.0910873460231 -0.176899777005  0.
-0.096170767103 -0.201158612247  0.
-0.100979408744 -0.226653955368  0.
-0.105513270881 -0.253317111477  0.
-0.109772353499 -0.281079385663  0.
-0.11375665662 -0.309872082991  0.
-0.117466180367 -0.339626508503  0.
-0.120900925113 -0.370273967269  0.
-0.124060891815 -0.401745764692  0.
-0.126946082538 -0.433973207552  0.
-0.12955650066 -0.466887606983  0.
-0.131892148406 -0.500420285512  0.
-0.133953013811 -0.534502591216  0.
-0.135739024318 -0.569065914545  0.
-0.137249917794 -0.604041693127  0.
-0.138484905597 -0.639361221516  0.
-0.139442013162 -0.674955312945  0.
-0.140116226563 -0.710749990982  0.
-0.140499766618 -0.746668312636  0.
-0.140595959575 -0.782489746799  0.
0.000566015625 -0.0030375  0.
-0.00594089840149 -0.00502802297684  0.
-0.0122238595152 -0.00914864134932  0.
-0.0183024111141 -0.0153409767153  0.
-0.0241755895307 -0.0235278798699  0.
-0.0298428980519 -0.0336390201325  0.
-0.0353041579136 -0.045605013614  0.
-0.0405593304753 -0.0593570430441  0.
-0.0456084117201 -0.0748264058653  0.
-0.05045140403 -0.0919444236549  0.
-0.0550883096561 -0.110642413627  0.
-0.0595191298294 -0.130851687158  0.
-0.0637438650892 -0.152503551976  0.
-0.0677625156346 -0.175529314126  0.
-0.0715750815266 -0.199860278991  0.
-0.0751815627792 -0.225427751738  0.
-0.0785819593947 -0.252163037476  0.
-0.0817762713754 -0.279997441292  0.
-0.0847644987287 -0.308862268255  0.
-0.0875466414675 -0.338688823402  0.
-0.0901226995976 -0.369408411787  0.
-0.0924926730581 -0.400952338727  0.
-0.0946565615175 -0.433251910749  0.
-0.0966143638056 -0.466238438309  0.
-0.0983660765756 -0.49984324256  0.
-0.0999116917056 -0.533997668774  0.
-0.101251193032 -0.568633107648  0.
-0.102384558457 -0.603680991468  0.
-0.103311800921 -0.639072714769  0.
-0.104033237498 -0.674738774723  0.
-0.10455043698 -0.710607860032  0.
-0.104870963233 -0.74658985475  0.
-0.104968008944 -0.782624092713  0.
0.000646875 -0.00135  0.
-0.00369444556461 -0.00341692207372  0.
-0.00788845939843 -0.00760207716811  0.
-0.011940278853 -0.0138471425995  0.
-0.0158547729727 -0.0220857316431  0.
-0.0196323706863 -0.0322481976263  0.
-0.0232729282826 -0.0442655787044  0.
-0.0267762671508 -0.0580690579891  0.
-0.0301422857156 -0.0735899121855  0.
-0.0333709383169 -0.0907594404354  0.
-0.0364622076938 -0.109508948451  0.
-0.0394160884023 -0.129769742517  0.
-0.0422325791509 -0.151473128519  0.
-0.044911679835 -0.174550411938  0.
-0.0474533905727 -0.198932898037  0.
-0.0498577114635 -0.224551891982  0.
-0.0521246425579 -0.251338698902  0.
-0.0542541838655 -0.279224623912  0.
-0.0562463353465 -0.308140972126  0.
-0.058101096864 -0.338019048665  0.
-0.0598184680751 -0.368790158714  0.
-0.0613984482824 -0.400385607663  0.
-0.0628410364693 -0.432736701502  0.
-0.0641462324818 -0.465774747667  0.
-0.0653140424138 -0.499431056397  0.
-0.06634449634 -0.53363694203  0.
-0.0672376966693 -0.568323717087  0.
-0.0679939296088 -0.603422668667  0.
-0.0686138793599 -0.638864897598  0.
-0.0690988346925 -0.674581063533  0.
-0.0694506311053 -0.710499278427  0.
-0.0696632864227 -0.746551196934  0.
-0.0697259028609 -0.782693999419  0.
0.000404296875 -0.0003375  0.
-0.00176729120559 -0.00244707380485  0.
-0.00386523075313 -0.00667156171859  0.
-0.00589176863454 -0.0129508239081  0.
-0.00784882300305 -0.0212206708589  0.
-0.00973740080215 -0.0314138991529  0.
-0.0115575511135 -0.043462014321  0.
-0.0133091634312 -0.0572963074787  0.
-0.0149921514539 -0.0728480300666  0.
-0.0166064711983 -0.0900484545076  0.
-0.0181521044039 -0.108828870077  0.
-0.0196290446826 -0.129120575658  0.
-0.0210372902242 -0.150854874282  0.
-0.0223768406964 -0.173963070521  0.
-0.0236476961332 -0.198376469414  0.
-0.0248498566075 -0.224026376109  0.
-0.0259833221624 -0.25084409576  0.
-0.0270480928036 -0.27876093352  0.
-0.0280441684866 -0.307708194567  0.
-0.0289715490721 -0.337617184137  0.
-0.0298302342436 -0.368419207572  0.
-0.0306202234438 -0.400045570259  0.
-0.0313415161504 -0.432427577117  0.
-0.0319941136213 -0.465496530501  0.
-0.0325780253632 -0.499183723775  0.
-0.0330932882157 -0.533420424248  0.
-0.0335400136887 -0.568137837848  0.
-0.0339184841225 -0.603267041357  0.
-0.034229275273 -0.638738965471  0.
-0.0344731754698 -0.674484471403  0.
-0.0346494793417 -0.71043620102  0.
-0.0347548059208 -0.746533828544  0.
-0.0347859197626 -0.782728025475  0.
0.0 0.0  0.
8.09862164598e-17 -0.00212342406344  0.
1.68083567995e-16 -0.00636099165365  0.
2.59986864413e-16 -0.0126518931396  0.
3.53080504741e-16 -0.0209323666091  0.
4.47213523008e-16 -0.031135836574  0.
5.4084420779e-16 -0.0431941826917  0.
6.35560076093e-16 -0.0570387338041  0.
7.3053941487e-16 -0.0726007397388  0.
8.24537935286e-16 -0.0898114603257  0.
9.2049109543e-16 -0.10860217754  0.
1.01388881953e-15 -0.128904186716  0.
1.104818622e-15 -0.150648789507  0.
1.19551012098e-15 -0.173767290025  0.
1.283986566e-15 -0.198190993195  0.
1.3753965262e-15 -0.223851204147  0.
1.46227183063e-15 -0.250679228047  0.
1.55868632454e-15 -0.278606370066  0.
1.64320823615e-15 -0.30756393541  0.
1.72127747927e-15 -0.33748322937  0.
1.78536152013e-15 -0.36829555735  0.
1.87176581078e-15 -0.399932224702  0.
1.98218618169e-15 -0.432324535757  0.
2.06532446032e-15 -0.465403790305  0.
2.12856939067e-15 -0.499101273331  0.
2.17919911206e-15 -0.533348230205  0.
2.23024661489e-15 -0.568075814944  0.
2.29146120703e-15 -0.603215025656  0.
2.31548952324e-15 -0.638696692968  0.
2.32560138024e-15 -0.674452181653  0.
2.33556136754e-15 -0.710415808702  0.
2.38553115371e-15 -0.74652852373  0.
2.43427186497e-15 -0.782738466001  0.
-0.000404296875 -0.0003375  0.
0.00176729120559 -0.00244707380485  0.
0.00386523075313 -0.00667156171859  0.
0.00589176863454 -0.0129508239081  0.
0.00784882300305 -0.0212206708589  0.
0.00973740080216 -0.0314138991529  0.
0.0115575511135 -0.043462014321  0.
0.0133091634312 -0.0572963074787  0.
0.0149921514539 -0.0728480300666  0.
0.0166064711983 -0.0900484545076  0.
0.0181521044039 -0.108828870077  0.
0.0196290446826 -0.129120575658  0.
0.0210372902243 -0.150854874282  0.
0.0223768406964 -0.173963070521  0.
0.0236476961332 -0.198376469414  0.
0.0248498566075 -0.224026376109  0.
0.0259833221624 -0.25084409576  0.
0.0270480928036 -0.27876093352  0.
0.0280441684866 -0.307708194567  0.
0.0289715490721 -0.337617184137  0.
0.0298302342436 -0.368419207572  0.
0.0306202234438 -0.400045570259  0.
0.0313415161504 -0.432427577117  0.
0.0319941136213 -0.465496530501  0.
0.0325780253632 -0.499183723775  0.
0.0330932882157 -0.533420424248  0.
0.0335400136887 -0.568137837848  0.
0.0339184841225 -0.603267041357  0.
0.034229275273 -0.638738965471  0.
0.0344731754698 -0.674484471403  0.
0.0346494793417 -0.71043620102  0.
0.0347548059208 -0.746533828544  0.
0.0347859197626 -0.782728025475  0.
-0.000646875 -0.00135  0.
0.00369444556461 -0.00341692207372  0.
0.00788845939843 -0.00760207716811  0.
0.011940278853 -0.0138471425995  0.
0.0158547729727 -0.0220857316431  0.
0.0196323706863 -0.0322481976263  0.
0.0232729282826 -0.0442655787044  0.
0.0267762671508 -0.0580690579891  0.
0.0301422857156 -0.0735899121855  0.
0.0333709383169 -0.0907594404354  0.
0.0364622076938 -0.109508948451  0.
0.0394160884023 -0.129769742517  0.
0.0422325791509 -0.151473128519  0.
0.044911679835 -0.174550411938  0.
0.0474533905727 -0.198932898037  0.
0.0498577114635 -0.224551891982  0.
0.0521246425579 -0.251338698902  0.
0.0542541838655 -0.279224623912  0.
0.0562463353465 -0.308140972126  0.
0.058101096864 -0.338019048665  0.
0.0598184680751 -0.368790158714  0.
0.0613984482824 -0.400385607663  0.
0.0628410364693 -0.432736701502  0.
0.0641462324818 -0.465774747667  0.
0.0653140424138 -0.499431056397  0.
0.06634449634 -0.53363694203  0.
0.0672376966693 -0.568323717087  0.
0.0679939296088 -0.603422668667  0.
0.0686138793599 -0.638864897598  0.
0.0690988346925 -0.674581063533  0.
0.0694506311053 -0.710499278427  0.
0.0696632864227 -0.746551196934  0.
0.0697259028609 -0.782693999419  0.
-0.000566015625 -0.0030375  0.
0.00594089840149 -0.00502802297684  0.
0.0122238595152 -0.00914864134932  0.
0.0183024111141 -0.0153409767153  0.
0.0241755895307 -0.0235278798699  0.
0.0298428980519 -0.0336390201325  0.
0.0353041579136 -0.045605013614  0.
0.0405593304753 -0.0593570430441  0.
0.0456084117201 -0.0748264058653  0.
0.05045140403 -0.0919444236549  0.
0.0550883096561 -0.110642413627  0.
0.0595191298294 -0.130851687158  0.
0.0637438650892 -0.152503551976  0.
0.0677625156346 -0.175529314126  0.
0.0715750815266 -0.199860278991  0.
0.0751815627792 -0.225427751738  0.
0.0785819593947 -0.252163037476  0.
0.0817762713754 -0.279997441292  0.
0.0847644987287 -0.308862268255  0.
0.0875466414675 -0.338688823402  0.
0.0901226995976 -0.369408411787  0.
0.0924926730581 -0.400952338727  0.
0.0946565615175 -0.433251910749  0.
0.0966143638056 -0.466238438309  0.
0.0983660765756 -0.49984324256  0.
0.0999116917057 -0.533997668774  0.
0.101251193032 -0.568633107648  0.
0.102384558457 -0.603680991468  0.
0.103311800921 -0.639072714769  0.
0.104033237498 -0.674738774723  0.
0.10455043698 -0.710607860032  0.
0.104870963233 -0.74658985475  0.
0.104968008944 -0.782624092713  0.
0.0 -0.0054  0.
0.00864278978217 -0.00726345300791  0.
0.0170276411533 -0.0113139185919  0.
0.025137377817 -0.0174328351023  0.
0.0329703884874 -0.0255475746393  0.
0.0405275709554 -0.0355865200377  0.
0.04780948861 -0.0474803790301  0.
0.0548164414403 -0.061160279223  0.
0.0615485540835 -0.076557514601  0.
0.0680058719191 -0.0936034040558  0.
0.0741884083849 -0.112229265032  0.
0.0800961663004 -0.132366409183  0.
0.085729145655 -0.153946144459  0.
0.0910873460231 -0.176899777005  0.
0.0961707671031 -0.201158612247  0.
0.100979408744 -0.226653955368  0.
0.105513270881 -0.253317111477  0.
0.109772353499 -0.281079385663  0.
0.11375665662 -0.309872082991  0.
0.117466180367 -0.339626508503  0.
0.120900925113 -0.370273967269  0.
0.124060891815 -0.401745764692  0.
0.126946082538 -0.433973207552  0.
0.12955650066 -0.466887606983  0.
0.131892148406 -0.500420285512  0.
0.133953013811 -0.534502591216  0.
0.135739024318 -0.569065914545  0.
0.137249917794 -0.604041693127  0.
0.138484905597 -0.639361221516  0.
0.139442013162 -0.674955312945  0.
0.140116226563 -0.710749990982  0.
0.140499766618 -0.746668312636  0.
0.140595959575 -0.782489746799  0.
</DataArray>
<DataArray type="Float64" Name="Nodal_sigma_xx" NumberOfComponents="1" format="ascii" >
-15132.2250542 
-14899.9588473 
-14427.8834486 
-13947.181711 
-13465.4152346 
-12983.8739048 
-12502.6718864 
-12021.6677622 
-11540.7548451 
-11059.8768983 
-10579.0102253 
-10098.1463306 
-9617.28272902 
-9136.41892094 
-8655.55492222 
-8174.69081922 
-7693.82667593 
-7212.9625436 
-6732.09850416 
-6251.23474451 
-5770.37166438 
-5289.50993399 
-4808.65006474 
-4327.78999735 
-3846.9164534 
-3365.98019149 
-2884.83481594 
-2403.11762562 
-1920.05406415 
-1434.52900139 
-945.989993367 
-465.876227519 
-230.774810232 
-12982.9555602 
-12776.4436386 
-12364.4711162 
-11953.0220088 
-11540.9199383 
-11128.6828997 
-10716.4528865 
-10304.2519112 
-9892.06918919 
-9479.89513196 
-9067.72445904 
-8655.5549004 
-8243.38562691 
-7831.21638988 
-7419.04713626 
-7006.87786601 
-6594.70858883 
-6182.53931691 
-5770.37007034 
-5358.20088733 
-4946.03182813 
-4533.86292859 
-4121.69395746 
-3709.52356862 
-3297.34692034 
-2885.14988937 
-2472.89840238 
-2060.52435652 
-1647.96209408 
-1235.35281318 
-824.126260125 
-413.720135669 
-208.264776864 
-8668.60356302 
-8524.27971778 
-8241.77976543 
-7966.6404223 
-7692.69099709 
-7418.53627311 
-7144.07457198 
-6869.42723798 
-6594.69416509 
-6319.92789815 
-6045.15085995 
-5770.37112486 
-5495.59108144 
-5220.81122126 
-4946.03153749 
-4671.25195128 
-4396.47240286 
-4121.69284367 
-3846.91319606 
-3572.13328394 
-3297.35273374 
-3022.57092866 
-2747.78743449 
-2473.0043269 
-2198.23440655 
-1923.52472589 
-1649.01344066 
-1375.04369731 
-1102.32278813 
-831.906355394 
-563.781697852 
-288.63249919 
-147.123294716 
-4335.96006742 
-4264.00142697 
-4121.84411994 
-3982.97066858 
-3845.89395452 
-3709.00180919 
-3571.91718233 
-3434.66842445 
-3297.33295162 
-3159.96066078 
-3022.57520183 
-2885.18589019 
-2747.79580734 
-2610.40575155 
-2473.01582997 
-2335.62599825 
-2198.23620235 
-2060.84638937 
-1923.45647343 
-1786.06627522 
-1648.67545793 
-1511.28359843 
-1373.89093682 
-1236.50145861 
-1099.13254156 
-961.840178294 
-824.773996059 
-688.265939665 
-552.859212282 
-418.771551703 
-283.561613223 
-143.63948691 
-72.1879864873 
1.75077730091e-10 
1.78715708898e-10 
1.8462742446e-10 
1.8712853489e-10 
1.8610535335e-10 
1.85991666513e-10 
1.87924342754e-10 
1.87469595403e-10 
1.84911641554e-10 
1.82467374543e-10 
1.85650605999e-10 
1.86560100701e-10 
1.79397829925e-10 
1.70473413164e-10 
1.63822733157e-10 
1.68597580341e-10 
1.72917680175e-10 
1.74225078808e-10 
1.77237780008e-10 
1.5617729332e-10 
1.34093625093e-10 
1.39436906466e-10 
1.37930555866e-10 
1.29176669361e-10 
1.1027623259e-10 
9.25695076148e-11 
1.07590381049e-10 
8.9315221885e-11 
5.12727638124e-11 
4.85584905618e-11 
4.14246414948e-11 
4.2749803697e-11 
5.38520339433e-11 
4335.96006742 
4264.00142697 
4121.84411994 
3982.97066858 
3845.89395452 
3709.00180919 
3571.91718233 
3434.66842445 
3297.33295162 
3159.96066078 
3022.57520183 
2885.18589019 
2747.79580734 
2610.40575155 
2473.01582997 
2335.62599825 
2198.23620235 
2060.84638937 
1923.45647343 
1786.06627522 
1648.67545793 
1511.28359843 
1373.89093682 
1236.50145861 
1099.13254156 
961.840178294 
824.773996059 
688.265939665 
552.859212282 
418.771551703 
283.561613223 
143.63948691 
72.1879864873 
8668.60356302 
8524.27971779 
8241.77976543 
7966.6404223 
7692.69099709 
7418.53627311 
7144.07457198 
6869.42723798 
6594.69416509 
6319.92789815 
6045.15085995 
5770.37112486 
5495.59108144 
5220.81122126 
4946.03153749 
4671.25195128 
4396.47240286 
4121.69284367 
3846.91319606 
3572.13328394 
3297.35273374 
3022.57092866 
2747.78743449 
2473.0043269 
2198.23440655 
1923.52472589 
1649.01344066 
1375.04369731 
1102.32278813 
831.906355394 
563.781697852 
288.63249919 
147.123294716 
12982.9555602 
12776.4436386 
12364.4711162 
11953.0220088 
11540.9199383 
11128.6828997 
10716.4528865 
10304.2519112 
9892.06918919 
9479.89513197 
9067.72445904 
8655.5549004 
8243.38562691 
7831.21638988 
7419.04713626 
7006.87786601 
6594.70858883 
6182.53931691 
5770.37007034 
5358.20088733 
4946.03182813 
4533.86292859 
4121.69395746 
3709.52356863 
3297.34692034 
2885.14988937 
2472.89840238 
2060.52435652 
1647.96209408 
1235.35281318 
824.126260125 
413.720135669 
208.264776864 
15132.2250542 
14899.9588473 
14427.8834486 
13947.181711 
13465.4152346 
12983.8739048 
12502.6718864 
12021.6677622 
11540.7548451 
11059.8768983 
10579.0102253 
10098.1463306 
9617.28272902 
9136.41892094 
8655.55492222 
8174.69081922 
7693.82667593 
7212.9625436 
6732.09850416 
6251.23474451 
5770.37166438 
5289.50993399 
4808.65006474 
4327.78999735 
3846.9164534 
3365.98019149 
2884.83481594 
2403.11762562 
1920.05406415 
1434.52900139 
945.989993368 
465.876227519 
230.774810232 
</DataArray>
<DataArray type="Float64" Name="Nodal_sigma_yy" NumberOfComponents="1" format="ascii" >
58.2625148125 
29.330998196 
0.556417013125 
0.189879654091 
-0.250654880247 
-0.132173425804 
-0.06810771784 
-0.0270738359965 
-0.00942794913885 
-0.00259849604413 
-0.000449896354326 
7.00382332752e-05 
0.000116405613653 
7.24929545868e-05 
3.43694374578e-05 
1.29333245695e-05 
-1.16423882446e-06 
-2.32717144399e-05 
-7.90077492638e-05 
-0.00021326857933 
-0.000483524212996 
-0.000871370882123 
-0.000896039957695 
0.00155272381494 
0.0135745801878 
0.0533101014652 
0.168503288592 
0.423193340815 
1.11046841774 
1.49837005139 
5.83200574413 
-57.412464154 
-125.120470673 
53.3787990494 
30.7927314807 
4.63523627292 
0.360753753958 
-0.350754836146 
-0.282833685866 
-0.149791763452 
-0.0642711110492 
-0.0233353987461 
-0.00698017446001 
-0.0014754815553 
-6.80599504221e-06 
0.000215173291338 
0.000154177461638 
7.76280063803e-05 
2.95561500536e-05 
-5.0502690101e-06 
-5.98231390541e-05 
-0.000191508889372 
-0.000492257157987 
-0.00105398758109 
-0.00171258942004 
-0.00107599653094 
0.0063787032779 
0.0376071430098 
0.136269836964 
0.3976199689 
0.985266902006 
2.0917988782 
3.27798062414 
0.959678375016 
-53.9432055217 
-106.04789175 
39.8935170877 
27.4605783394 
8.78138053816 
1.15643734404 
-0.384346930946 
-0.448316109647 
-0.258588828913 
-0.116615787386 
-0.0441720139071 
-0.0139585049427 
-0.00332098904653 
-0.000276399253579 
0.000298980824795 
0.000254023453834 
0.000135617730393 
5.21927091199e-05 
-1.27156646244e-05 
-0.000116196028742 
-0.000355572805177 
-0.000877076155732 
-0.00177974710839 
-0.00258302377375 
-0.000345283991024 
0.0157102563164 
0.0771540028144 
0.261991402096 
0.72952712974 
1.71672071257 
3.2411700625 
3.93183094977 
-5.7226214842 
-41.6450839368 
-68.0902662453 
20.9609849124 
15.3199556604 
6.17638878993 
1.34616648374 
-0.183041312528 
-0.32975491823 
-0.205838999751 
-0.0963199795555 
-0.0375884850062 
-0.0123041769694 
-0.00312770317494 
-0.000385759953037 
0.000192542647818 
0.000194559581816 
0.000108936793811 
4.22695544664e-05 
-1.26235358593e-05 
-0.000100567859516 
-0.000298618800898 
-0.000715101728677 
-0.00139148424078 
-0.0018217111836 
0.000672555425179 
0.0154463833935 
0.0690672767094 
0.225161133808 
0.60758177274 
1.36841721572 
2.37577425475 
1.72806327858 
-5.44485051028 
-22.0044584929 
-32.553085143 
4.22204493589e-11 
3.34310357175e-11 
1.79909420694e-11 
5.563549621e-12 
-4.00746102969e-12 
-4.92406115882e-12 
-2.22399876293e-12 
-7.13384906703e-12 
-1.13402620627e-11 
-1.63673519182e-11 
-1.02176045402e-11 
4.76063632959e-13 
-1.90265581068e-11 
-4.59845495016e-11 
-5.15072429152e-11 
-1.8847146066e-11 
-1.05728759081e-11 
-1.71382907865e-11 
1.84847692708e-11 
5.22959453519e-12 
-7.77227171511e-11 
-1.52452273028e-10 
-1.45961465137e-10 
-5.14344122848e-11 
-3.62891938721e-11 
-6.93702872923e-11 
-9.368505971e-12 
1.29189992037e-11 
2.92641466615e-11 
7.00763891359e-11 
-1.45483625147e-12 
-2.88085111322e-11 
1.61559654543e-11 
-20.9609849123 
-15.3199556603 
-6.17638878989 
-1.34616648372 
0.183041312528 
0.329754918224 
0.205838999743 
0.0963199795478 
0.0375884849978 
0.0123041769503 
0.0031277031429 
0.000385759927791 
-0.000192542668238 
-0.000194559625058 
-0.00010893686088 
-4.22696055722e-05 
1.26234933973e-05 
0.00010056776895 
0.000298618679448 
0.000715101631517 
0.00139148411869 
0.00182171103587 
-0.000672555514212 
-0.0154463834792 
-0.0690672768822 
-0.225161133973 
-0.607581772804 
-1.36841721572 
-2.37577425472 
-1.72806327851 
5.44485051034 
22.0044584929 
32.553085143 
-39.8935170876 
-27.4605783393 
-8.78138053813 
-1.15643734403 
0.384346930946 
0.448316109638 
0.258588828901 
0.11661578738 
0.044172013897 
0.0139585049421 
0.00332098904755 
0.000276399225527 
-0.000298980859071 
-0.000254023501057 
-0.000135617817662 
-5.21928388082e-05 
1.27155295075e-05 
0.000116195882896 
0.000355572598707 
0.000877075943038 
0.00177974701775 
0.00258302386879 
0.000345284098159 
-0.0157102563802 
-0.0771540029447 
-0.261991402154 
-0.729527129804 
-1.71672071269 
-3.2411700626 
-3.93183094975 
5.7226214844 
41.6450839369 
68.0902662454 
-53.3787990493 
-30.7927314806 
-4.6352362729 
-0.360753753957 
0.350754836141 
0.282833685855 
0.149791763439 
0.0642711110379 
0.0233353987321 
0.00698017446365 
0.00147548157651 
6.80598975578e-06 
-0.000215173338148 
-0.000154177523825 
-7.76280689365e-05 
-2.95562264512e-05 
5.0502094382e-06 
5.98231484901e-05 
0.000191508918363 
0.000492257133317 
0.00105398758694 
0.00171258951556 
0.0010759965535 
-0.00637870340965 
-0.0376071431554 
-0.136269837028 
-0.397619968916 
-0.985266902053 
-2.09179887829 
-3.27798062416 
-0.95967837494 
53.9432055219 
106.04789175 
-58.2625148124 
-29.3309981959 
-0.556417013123 
-0.189879654092 
0.250654880246 
0.132173425799 
0.0681077178274 
0.0270738359847 
0.00942794913669 
0.0025984960472 
0.000449896351029 
-7.00382391869e-05 
-0.000116405641506 
-7.24929790294e-05 
-3.43694191542e-05 
-1.29332825054e-05 
1.16432613595e-06 
2.3271878149e-05 
7.90079403146e-05 
0.000213268750599 
0.000483524317247 
0.000871370892526 
0.000896039902386 
-0.00155272401935 
-0.0135745804916 
-0.0533101016689 
-0.168503288604 
-0.423193340702 
-1.11046841771 
-1.49837005147 
-5.83200574425 
57.4124641539 
125.120470672 
</DataArray>
<DataArray type="Float64" Name="Nodal_sigma_xy" NumberOfComponents="1" format="ascii" >
-225.411145795 
-240.66921476 
-257.291244823 
-258.534724488 
-258.171314016 
-257.781283622 
-257.564776032 
-257.467852371 
-257.431127445 
-257.419485048 
-257.416694806 
-257.416450034 
-257.41669208 
-257.416900657 
-257.417013259 
-257.417062039 
-257.41707468 
-257.417051707 
-257.416950813 
-257.416654476 
-257.415928184 
-257.414460701 
-257.412350183 
-257.412156243 
-257.425399494 
-257.489767982 
-257.70780569 
-258.319125697 
-259.818984787 
-262.974835511 
-268.254135628 
-250.892598856 
-230.353118744 
-445.42342649 
-452.45512199 
-461.702250575 
-464.114650575 
-464.163128277 
-463.879092302 
-463.670207463 
-463.565026947 
-463.521526263 
-463.506341934 
-463.502051253 
-463.501269532 
-463.501354256 
-463.50153115 
-463.501644385 
-463.501697142 
-463.501709024 
-463.501676299 
-463.501550959 
-463.501212606 
-463.500454267 
-463.499117776 
-463.497847246 
-463.500775083 
-463.523258842 
-463.610703366 
-463.87624824 
-464.554948577 
-465.99635253 
-468.313672064 
-468.696496828 
-457.531693187 
-447.341473757 
-811.93316985 
-808.195480797 
-805.349778255 
-806.632342509 
-807.072685654 
-807.096490525 
-807.045583561 
-807.007096605 
-806.987704241 
-806.979723124 
-806.976955257 
-806.976180892 
-806.97604395 
-806.976062196 
-806.976095308 
-806.976114508 
-806.976117137 
-806.976097762 
-806.976036775 
-806.975896717 
-806.975646465 
-806.975397573 
-806.975894209 
-806.979933754 
-806.995849869 
-807.044519617 
-807.168900647 
-807.427125557 
-807.770709055 
-807.455300656 
-804.093206847 
-805.974776648 
-810.729494569 
-1031.13907351 
-1024.10737801 
-1014.86024942 
-1012.44784942 
-1012.39937172 
-1012.6834077 
-1012.89229254 
-1012.99747305 
-1013.04097374 
-1013.05615806 
-1013.06044875 
-1013.06123047 
-1013.06114574 
-1013.06096885 
-1013.06085561 
-1013.06080286 
-1013.06079097 
-1013.0608237 
-1013.06094904 
-1013.06128739 
-1013.06204573 
-1013.06338222 
-1013.06465275 
-1013.06172492 
-1013.03924116 
-1012.95179663 
-1012.68625176 
-1012.00755142 
-1010.56614747 
-1008.24882794 
-1007.86600317 
-1019.03080681 
-1029.22102624 
-1103.8475145 
-1096.06482364 
-1085.13419866 
-1081.32559049 
-1080.80831467 
-1081.15073533 
-1081.46905684 
-1081.64295441 
-1081.71846407 
-1081.7460687 
-1081.75439468 
-1081.75618818 
-1081.75622002 
-1081.75597495 
-1081.75579612 
-1081.75570894 
-1081.75569104 
-1081.75575277 
-1081.75597563 
-1081.75655209 
-1081.75777888 
-1081.75974415 
-1081.7608614 
-1081.75297625 
-1081.70790077 
-1081.54619278 
-1081.07939301 
-1079.95162319 
-1077.7645971 
-1075.23956318 
-1076.68445068 
-1090.28284785 
-1101.31289212 
-1031.13907351 
-1024.10737801 
-1014.86024942 
-1012.44784942 
-1012.39937172 
-1012.6834077 
-1012.89229254 
-1012.99747305 
-1013.04097374 
-1013.05615806 
-1013.06044875 
-1013.06123047 
-1013.06114574 
-1013.06096885 
-1013.06085561 
-1013.06080286 
-1013.06079097 
-1013.0608237 
-1013.06094904 
-1013.06128739 
-1013.06204573 
-1013.06338222 
-1013.06465275 
-1013.06172492 
-1013.03924116 
-1012.95179663 
-1012.68625176 
-1012.00755142 
-1010.56614747 
-1008.24882794 
-1007.86600317 
-1019.03080681 
-1029.22102624 
-811.93316985 
-808.195480797 
-805.349778255 
-806.632342509 
-807.072685654 
-807.096490525 
-807.045583561 
-807.007096605 
-806.987704241 
-806.979723124 
-806.976955257 
-806.976180892 
-806.97604395 
-806.976062196 
-806.976095308 
-806.976114508 
-806.976117137 
-806.976097762 
-806.976036775 
-806.975896717 
-806.975646465 
-806.975397573 
-806.975894209 
-806.979933754 
-806.995849869 
-807.044519617 
-807.168900647 
-807.427125557 
-807.770709055 
-807.455300656 
-804.093206847 
-805.974776648 
-810.729494569 
-445.42342649 
-452.45512199 
-461.702250575 
-464.114650575 
-464.163128277 
-463.879092302 
-463.670207463 
-463.565026947 
-463.521526263 
-463.506341934 
-463.502051253 
-463.501269532 
-463.501354256 
-463.50153115 
-463.501644385 
-463.501697142 
-463.501709024 
-463.501676299 
-463.501550959 
-463.501212606 
-463.500454267 
-463.499117776 
-463.497847246 
-463.500775083 
-463.523258842 
-463.610703366 
-463.87624824 
-464.554948577 
-465.99635253 
-468.313672064 
-468.696496828 
-457.531693187 
-447.341473757 
-225.411145795 
-240.66921476 
-257.291244823 
-258.534724488 
-258.171314016 
-257.781283622 
-257.564776032 
-257.467852371 
-257.431127445 
-257.419485048 
-257.416694806 
-257.416450034 
-257.41669208 
-257.416900657 
-257.417013259 
-257.417062039 
-257.41707468 
-257.417051707 
-257.416950813 
-257.416654476 
-257.415928184 
-257.414460701 
-257.412350183 
-257.412156243 
-257.425399494 
-257.489767982 
-257.70780569 
-258.319125697 
-259.818984787 
-262.974835511 
-268.254135628 
-250.892598856 
-230.353118744 
</DataArray>
</PointData>
<CellData>
</CellData>
<Points>
<DataArray type="Float64" Name="Points" NumberOfComponents="3" format="ascii">
0.0 -2.0 0.0
0.5 -2.0 0.0
1.0 -2.0 0.0
1.5 -2.0 0.0
2.0 -2.0 0.0
2.5 -2.0 0.0
3.0 -2.0 0.0
3.5 -2.0 0.0
4.0 -2.0 0.0
4.5 -2.0 0.0
5.0 -2.0 0.0
5.5 -2.0 0.0
6.0 -2.0 0.0
6.5 -2.0 0.0
7.0 -2.0 0.0
7.5 -2.0 0.0
8.0 -2.0 0.0
8.5 -2.0 0.0
9.0 -2.0 0.0
9.5 -2.0 0.0
10.0 -2.0 0.0
10.5 -2.0 0.0
11.0 -2.0 0.0
11.5 -2.0 0.0
12.0 -2.0 0.0
12.5 -2.0 0.0
13.0 -2.0 0.0
13.5 -2.0 0.0
14.0 -2.0 0.0
14.5 -2.0 0.0
15.0 -2.0 0.0
15.5 -2.0 0.0
16.0 -2.0 0.0
0.0 -1.5 0.0
0.5 -1.5 0.0
1.0 -1.5 0.0
1.5 -1.5 0.0
2.0 -1.5 0.0
2.5 -1.5 0.0
3.0 -1.5 0.0
3.5 -1.5 0.0
4.0 -1.5 0.0
4.5 -1.5 0.0
5.0 -1.5 0.0
5.5 -1.5 0.0
6.0 -1.5 0.0
6.5 -1.5 0.0
7.0 -1.5 0.0
7.5 -1.5 0.0
8.0 -1.5 0.0
8.5 -1.5 0.0
9.0 -1.5 0.0
9.5 -1.5 0.0
10.0 -1.5 0.0
10.5 -1.5 0.0
11.0 -1.5 0.0
11.5 -1.5 0.0
12.0 -1.5 0.0
12.5 -1.5 0.0
13.0 -1.5 0.0
13.5 -1.5 0.0
14.0 -1.5 0.0
14.5 -1.5 0.0
15.0 -1.5 0.0
15.5 -1.5 0.0
16.0 -1.5 0.0
0.0 -1.0 0.0
0.5 -1.0 0.0
1.0 -1.0 0.0
1.5 -1.0 0.0
2.0 -1.0 0.0
2.5 -1.0 0.0
3.0 -1.0 0.0
3.5 -1.0 0.0
4.0 -1.0 0.0
4.5 -1.0 0.0
5.0 -1.0 0.0
5.5 -1.0 0.0
6.0 -1.0 0.0
6.5 -1.0 0.0
7.0 -1.0 0.0
7.5 -1.0 0.0
8.0 -1.0 0.0
8.5 -1.0 0.0
9.0 -1.0 0.0
9.5 -1.0 0.0
10.0 -1.0 0.0
10.5 -1.0 0.0
11.0 -1.0 0.0
11.5 -1.0 0.0
12.0 -1.0 0.0
12.5 -1.0 0.0
13.0 -1.0 0.0
13.5 -1.0 0.0
14.0 -1.0 0.0
14.5 -1.0 0.0
15.0 -1.0 0.0
15.5 -1.0 0.0
16.0 -1.0 0.0
0.0 -0.5 0.0
0.5 -0.5 0.0
1.0 -0.5 0.0
1.5 -0.5 0.0
2.0 -0.5 0.0
2.5 -0.5 0.0
3.0 -0.5 0.0
3.5 -0.5 0.0
4.0 -0.5 0.0
4.5 -0.5 0.0
5.0 -0.5 0.0
5.5 -0.5 0.0
6.0 -0.5 0.0
6.5 -0.5 0.0
7.0 -0.5 0.0
7.5 -0.5 0.0
8.0 -0.5 0.0
8.5 -0.5 0.0
9.0 -0.5 0.0
9.5 -0.5 0.0
10.0 -0.5 0.0
10.5 -0.5 0.0
11.0 -0.5 0.0
11.5 -0.5 0.0
12.0 -0.5 0.0
12.5 -0.5 0.0
13.0 -0.5 0.0
13.5 -0.5 0.0
14.0 -0.5 0.0
14.5 -0.5 0.0
15.0 -0.5 0.0
15.5 -0.5 0.0
16.0 -0.5 0.0
0.0 0.0 0.0
0.5 0.0 0.0
1.0 0.0 0.0
1.5 0.0 0.0
2.0 0.0 0.0
2.5 0.0 0.0
3.0 0.0 0.0
3.5 0.0 0.0
4.0 0.0 0.0
4.5 0.0 0.0
5.0 0.0 0.0
5.5 0.0 0.0
6.0 0.0 0.0
6.5 0.0 0.0
7.0 0.0 0.0
7.5 0.0 0.0
8.0 0.0 0.0
8.5 0.0 0.0
9.0 0.0 0.0
9.5 0.0 0.0
10.0 0.0 0.0
10.5 0.0 0.0
11.0 0.0 0.0
11.5 0.0 0.0
12.0 0.0 0.0
12.5 0.0 0.0
13.0 0.0 0.0
13.5 0.0 0.0
14.0 0.0 0.0
14.5 0.0 0.0
15.0 0.0 0.0
15.5 0.0 0.0
16.0 0.0 0.0
0.0 0.5 0.0
0.5 0.5 0.0
1.0 0.5 0.0
1.5 0.5 0.0
2.0 0.5 0.0
2.5 0.5 0.0
3.0 0.5 0.0
3.5 0.5 0.0
4.0 0.5 0.0
4.5 0.5 0.0
5.0 0.5 0.0
5.5 0.5 0.0
6.0 0.5 0.0
6.5 0.5 0.0
7.0 0.5 0.0
7.5 0.5 0.0
8.0 0.5 0.0
8.5 0.5 0.0
9.0 0.5 0.0
9.5 0.5 0.0
10.0 0.5 0.0
10.5 0.5 0.0
11.0 0.5 0.0
11.5 0.5 0.0
12.0 0.5 0.0
12.5 0.5 0.0
13.0 0.5 0.0
13.5 0.5 0.0
14.0 0.5 0.0
14.5 0.5 0.0
15.0 0.5 0.0
15.5 0.5 0.0
16.0 0.5 0.0
0.0 1.0 0.0
0.5 1.0 0.0
1.0 1.0 0.0
1.5 1.0 0.0
2.0 1.0 0.0
2.5 1.0 0.0
3.0 1.0 0.0
3.5 1.0 0.0
4.0 1.0 0.0
4.5 1.0 0.0
5.0 1.0 0.0
5.5 1.0 0.0
6.0 1.0 0.0
6.5 1.0 0.0
7.0 1.0 0.0
7.5 1.0 0.0
8.0 1.0 0.0
8.5 1.0 0.0
9.0 1.0 0.0
9.5 1.0 0.0
10.0 1.0 0.0
10.5 1.0 0.0
11.0 1.0 0.0
11.5 1.0 0.0
12.0 1.0 0.0
12.5 1.0 0.0
13.0 1.0 0.0
13.5 1.0 0.0
14.0 1.0 0.0
14.5 1.0 0.0
15.0 1.0 0.0
15.5 1.0 0.0
16.0 1.0 0.0
0.0 1.5 0.0
0.5 1.5 0.0
1.0 1.5 0.0
1.5 1.5 0.0
2.0 1.5 0.0
2.5 1.5 0.0
3.0 1.5 0.0
3.5 1.5 0.0
4.0 1.5 0.0
4.5 1.5 0.0
5.0 1.5 0.0
5.5 1.5 0.0
6.0 1.5 0.0
6.5 1.5 0.0
7.0 1.5 0.0
7.5 1.5 0.0
8.0 1.5 0.0
8.5 1.5 0.0
9.0 1.5 0.0
9.5 1.5 0.0
10.0 1.5 0.0
10.5 1.5 0.0
11.0 1.5 0.0
11.5 1.5 0.0
12.0 1.5 0.0
12.5 1.5 0.0
13.0 1.5 0.0
13.5 1.5 0.0
14.0 1.5 0.0
14.5 1.5 0.0
15.0 1.5 0.0
15.5 1.5 0.0
16.0 1.5 0.0
0.0 2.0 0.0
0.5 2.0 0.0
1.0 2.0 0.0
1.5 2.0 0.0
2.0 2.0 0.0
2.5 2.0 0.0
3.0 2.0 0.0
3.5 2.0 0.0
4.0 2.0 0.0
4.5 2.0 0.0
5.0 2.0 0.0
5.5 2.0 0.0
6.0 2.0 0.0
6.5 2.0 0.0
7.0 2.0 0.0
7.5 2.0 0.0
8.0 2.0 0.0
8.5 2.0 0.0
9.0 2.0 0.0
9.5 2.0 0.0
10.0 2.0 0.0
10.5 2.0 0.0
11.0 2.0 0.0
11.5 2.0 0.0
12.0 2.0 0.0
12.5 2.0 0.0
13.0 2.0 0.0
13.5 2.0 0.0
14.0 2.0 0.0
14.5 2.0 0.0
15.0 2.0 0.0
15.5 2.0 0.0
16.0 2.0 0.0
</DataArray>