<?xml version="1.0"?>
<VTKFile type="UnstructuredGrid" version="0.1" byte_order="LittleEndian" compressor="vtkZLibDataCompressor">
<UnstructuredGrid>
<Piece NumberOfPoints="297" NumberOfCells="256">
<PointData>
<DataArray type="Float64" Name="displacement" NumberOfComponents="3" format="ascii" >
0.0 -0.0144  0.
-0.0230474394191 -0.0193692080211  0.
-0.0454070430754 -0.0301704495784  0.
-0.067033007512 -0.0464875602728  0.
-0.0879210359665 -0.0681268657048  0.
-0.108073522548 -0.0948973867674  0.
-0.127491969627 -0.12661434408  0.
-0.146177177174 -0.163094077928  0.
-0.164129477556 -0.204153372269  0.
-0.181348991784 -0.249609077482  0.
-0.197835755693 -0.299278040085  0.
-0.213589776801 -0.352977091156  0.
-0.22861105508 -0.410523051892  0.
-0.242899589395 -0.471732738681  0.
-0.256455378942 -0.536422965993  0.
-0.269278423316 -0.604410547648  0.
-0.28136872235 -0.675512297272  0.
-0.292726275996 -0.749545028434  0.
-0.303351084321 -0.826325554644  0.
-0.313243147646 -0.905670689342  0.
-0.322402466967 -0.987397246052  0.
-0.330829044841 -1.07132203918  0.
-0.338522886768 -1.15726188681  0.
-0.34548400176 -1.24503361862  0.
-0.35171239575 -1.3344540947  0.
-0.35720803683 -1.42534024324  0.
-0.361970731516 -1.51750910546  0.
-0.365999780785 -1.61077784834  0.
-0.369293081592 -1.70496325738  0.
-0.371845368431 -1.79988083452  0.
-0.373643270834 -1.89533330929  0.
-0.374666044314 -1.99111550036  0.
-0.374922558867 -2.0866393248  0.
0.001509375 -0.0081  0.
-0.0158423957373 -0.0134080612716  0.
-0.0325969587071 -0.0243963769315  0.
-0.0488064296376 -0.040909271241  0.
-0.0644682387486 -0.0627410129863  0.
-0.0795810614719 -0.0897040536868  0.
-0.0941444211029 -0.121613369637  0.
-0.108158214601 -0.158285448118  0.
-0.121622431254 -0.199537082308  0.
-0.134537077413 -0.245185129747  0.
-0.146902159083 -0.29504643634  0.
-0.158717679545 -0.348937832421  0.
-0.169983640238 -0.406676138604  0.
-0.180700041692 -0.468078171003  0.
-0.190866884071 -0.532960743976  0.
-0.200484167411 -0.601140671302  0.
-0.209551891719 -0.672434766602  0.
-0.218070057001 -0.746659843445  0.
-0.226038663277 -0.823632715346  0.
-0.23345771058 -0.90317019574  0.
-0.240327198927 -0.985089098098  0.
-0.246647128155 -1.0692062366  0.
-0.25241749738 -1.15533842866  0.
-0.257638303482 -1.24330250216  0.
-0.262309537535 -1.33291531349  0.
-0.266431177882 -1.4239937834  0.
-0.27000318142 -1.51635495373  0.
-0.273025489218 -1.60981597725  0.
-0.275498135789 -1.70419390605  0.
-0.277421966663 -1.79930339926  0.
-0.278801165281 -1.89495429342  0.
-0.279655901954 -1.99090627934  0.
-0.279914690518 -2.08699758057  0.
0.001725 -0.0036  0.
-0.00985185483897 -0.00911179219658  0.
-0.0210358917292 -0.0202722057816  0.
-0.0318407436081 -0.0369257135987  0.
-0.0422793945939 -0.0588952843816  0.
-0.0523529884968 -0.0859951936701  0.
-0.0620611420869 -0.118041543212  0.
-0.0714033790688 -0.154850821304  0.
-0.0803794285749 -0.196239765828  0.
-0.088989168845 -0.242025174494  0.
-0.0972325538501 -0.292023862535  0.
-0.105109569073 -0.346052646713  0.
-0.112620211069 -0.403928342718  0.
-0.11976447956 -0.465467765168  0.
-0.126542374861 -0.530487728099  0.
-0.132953897236 -0.598805045285  0.
-0.138999046821 -0.670236530405  0.
-0.144677823641 -0.7445989971  0.
-0.149990227591 -0.821709259003  0.
-0.154936258304 -0.901384129775  0.
-0.159515914867 -0.983440423237  0.
-0.16372919542 -1.06769495377  0.
-0.167576097252 -1.15396453734  0.
-0.171056619951 -1.24206599378  0.
-0.17417077977 -1.33181615039  0.
-0.176918656907 -1.42303184541  0.
-0.179300524451 -1.51552991223  0.
-0.181317145623 -1.60912711645  0.
-0.18297034496 -1.70363972693  0.
-0.18426355918 -1.79888283609  0.
-0.185201682947 -1.89466474247  0.
-0.185768763794 -1.99080319182  0.
-0.185935740962 -2.08718399845  0.
0.001078125 -0.0009  0.
-0.00471277654824 -0.00652553014626  0.
-0.0103072820083 -0.0177908312496  0.
-0.0157113830255 -0.0345355304216  0.
-0.0209301946748 -0.0565884556238  0.
-0.0259664021391 -0.083770397741  0.
-0.0308201363028 -0.115898704856  0.
-0.0354911024831 -0.152790153277  0.
-0.0399790705439 -0.194261413511  0.
-0.0442839231954 -0.24012921202  0.
-0.0484056117438 -0.290210320205  0.
-0.0523441191537 -0.344321535088  0.
-0.056099440598 -0.402279664753  0.
-0.0596715751906 -0.463901521389  0.
-0.0630605230219 -0.529003918438  0.
-0.0662662842867 -0.597403669625  0.
-0.0692888590999 -0.668917588693  0.
-0.0721282474764 -0.743362489387  0.
-0.0747844492975 -0.820555185511  0.
-0.0772574641923 -0.900312491033  0.
-0.0795472913163 -0.982451220193  0.
-0.0816539291835 -1.06678818736  0.
-0.083577376401 -1.15314020565  0.
-0.0853176363236 -1.24132408134  0.
-0.0868747343018 -1.33115659673  0.
-0.0882487685752 -1.42245446466  0.
-0.0894400365032 -1.51503423426  0.
-0.0904492909934 -1.60871211029  0.
-0.0912780673947 -1.70330390792  0.
-0.0919284679194 -1.79862525708  0.
-0.092398611578 -1.89449653605  0.
-0.0926794824555 -1.99075687612  0.
-0.0927624527004 -2.0872747346  0.
0.0 0.0  0.
8.08116719986e-17 -0.00566246416918  0.
1.67975822088e-16 -0.0169626444097  0.
2.6016538743e-16 -0.0337383817057  0.
3.531274216e-16 -0.055819644291  0.
4.45430999207e-16 -0.0830288975306  0.
5.37555063445e-16 -0.115184487178  0.
6.3369763116e-16 -0.152103290144  0.
7.24635439036e-16 -0.193601972637  0.
8.20878402834e-16 -0.239497227535  0.
9.16348391137e-16 -0.289605806774  0.
1.00191372611e-15 -0.34374449791  0.
1.08057601496e-15 -0.401730105352  0.
1.18109304634e-15 -0.463379440068  0.
1.27837568863e-15 -0.528509315187  0.
1.37159277243e-15 -0.596936544392  0.
1.44642561649e-15 -0.668477941458  0.
1.53551478276e-15 -0.742950320175  0.
1.61763923629e-15 -0.820170494428  0.
1.67859940063e-15 -0.899955278321  0.
1.7456412164e-15 -0.982121486267  0.
1.8536708357e-15 -1.06648593254  0.
1.94034717478e-15 -1.15286542868  0.
2.01199451478e-15 -1.24107677415  0.
2.07428645856e-15 -1.33093672888  0.
2.12514149905e-15 -1.42226194722  0.
2.18113827314e-15 -1.51486883985  0.
2.23471860127e-15 -1.60857340175  0.
2.2663740798e-15 -1.70319118125  0.
2.34359058555e-15 -1.79853915108  0.
2.38104299771e-15 -1.89444215654  0.
2.38325564837e-15 -1.99074272995  0.
2.40682068516e-15 -2.087302576  0.
-0.001078125 -0.0009  0.
0.00471277654824 -0.00652553014626  0.
0.0103072820083 -0.0177908312496  0.
0.0157113830255 -0.0345355304216  0.
0.0209301946748 -0.0565884556238  0.
0.0259664021391 -0.083770397741  0.
0.0308201363028 -0.115898704856  0.
0.0354911024831 -0.152790153277  0.
0.0399790705439 -0.194261413511  0.
0.0442839231954 -0.24012921202  0.
0.0484056117438 -0.290210320205  0.
0.0523441191537 -0.344321535088  0.
0.056099440598 -0.402279664753  0.
0.0596715751906 -0.463901521389  0.
0.0630605230219 -0.529003918438  0.
0.0662662842867 -0.597403669625  0.
0.0692888590999 -0.668917588693  0.
0.0721282474764 -0.743362489387  0.
0.0747844492975 -0.820555185511  0.
0.0772574641923 -0.900312491033  0.
0.0795472913163 -0.982451220193  0.
0.0816539291835 -1.06678818736  0.
0.083577376401 -1.15314020565  0.
0.0853176363236 -1.24132408134  0.
0.0868747343018 -1.33115659673  0.
0.0882487685752 -1.42245446466  0.
0.0894400365032 -1.51503423426  0.
0.0904492909934 -1.60871211029  0.
0.0912780673947 -1.70330390792  0.
0.0919284679194 -1.79862525708  0.
0.092398611578 -1.89449653605  0.
0.0926794824555 -1.99075687612  0.
0.0927624527004 -2.0872747346  0.
-0.001725 -0.0036  0.
0.00985185483897 -0.00911179219658  0.
0.0210358917292 -0.0202722057816  0.
0.0318407436081 -0.0369257135987  0.
0.0422793945939 -0.0588952843816  0.
0.0523529884968 -0.0859951936701  0.
0.0620611420869 -0.118041543212  0.
0.0714033790688 -0.154850821304  0.
0.0803794285749 -0.196239765828  0.
0.088989168845 -0.242025174494  0.
0.0972325538501 -0.292023862535  0.
0.105109569073 -0.346052646713  0.
0.112620211069 -0.403928342718  0.
0.11976447956 -0.465467765168  0.
0.126542374861 -0.530487728099  0.
0.132953897236 -0.598805045285  0.
0.138999046821 -0.670236530405  0.
0.144677823641 -0.7445989971  0.
0.149990227591 -0.821709259003  0.
0.154936258304 -0.901384129775  0.
0.159515914867 -0.983440423237  0.
0.16372919542 -1.06769495377  0.
0.167576097252 -1.15396453734  0.
0.171056619951 -1.24206599378  0.
0.17417077977 -1.33181615039  0.
0.176918656907 -1.42303184541  0.
0.179300524451 -1.51552991223  0.
0.181317145623 -1.60912711645  0.
0.18297034496 -1.70363972693  0.
0.18426355918 -1.79888283609  0.
0.185201682947 -1.89466474247  0.
0.185768763794 -1.99080319182  0.
0.185935740962 -2.08718399845  0.
-0.001509375 -0.0081  0.
0.0158423957373 -0.0134080612716  0.
0.0325969587071 -0.0243963769315  0.
0.0488064296376 -0.040909271241  0.
0.0644682387486 -0.0627410129863  0.
0.0795810614719 -0.0897040536868  0.
0.0941444211029 -0.121613369637  0.
0.108158214601 -0.158285448118  0.
0.121622431254 -0.199537082308  0.
0.134537077413 -0.245185129747  0.
0.146902159083 -0.29504643634  0.
0.158717679545 -0.348937832421  0.
0.169983640238 -0.406676138604  0.
0.180700041692 -0.468078171003  0.
0.190866884071 -0.532960743976  0.
0.200484167411 -0.601140671302  0.
0.209551891719 -0.672434766602  0.
0.218070057001 -0.746659843445  0.
0.226038663277 -0.823632715346  0.
0.23345771058 -0.90317019574  0.
0.240327198927 -0.985089098098  0.
0.246647128155 -1.0692062366  0.
0.25241749738 -1.15533842866  0.
0.257638303482 -1.24330250216  0.
0.262309537535 -1.33291531349  0.
0.266431177882 -1.4239937834  0.
0.27000318142 -1.51635495373  0.
0.273025489218 -1.60981597725  0.
0.275498135789 -1.70419390605  0.
0.277421966663 -1.79930339926  0.
0.278801165281 -1.89495429342  0.
0.279655901954 -1.99090627934  0.
0.279914690518 -2.08699758057  0.
0.0 -0.0144  0.
0.0230474394191 -0.0193692080211  0.
0.0454070430754 -0.0301704495784  0.
0.067033007512 -0.0464875602728  0.
0.0879210359665 -0.0681268657048  0.
0.108073522548 -0.0948973867674  0.
0.127491969627 -0.12661434408  0.
0.146177177174 -0.163094077928  0.
0.164129477556 -0.204153372269  0.
0.181348991784 -0.249609077482  0.
0.197835755693 -0.299278040085  0.
0.213589776801 -0.352977091156  0.
0.22861105508 -0.410523051892  0.
0.242899589395 -0.471732738681  0.
0.256455378942 -0.536422965993  0.
0.269278423316 -0.604410547648  0.
0.28136872235 -0.675512297272  0.
0.292726275996 -0.749545028434  0.
0.303351084321 -0.826325554644  0.
0.313243147646 -0.905670689342  0.
0.322402466967 -0.987397246052  0.
0.330829044841 -1.07132203918  0.
0.338522886768 -1.15726188681  0.
0.34548400176 -1.24503361862  0.
0.35171239575 -1.3344540947  0.
0.35720803683 -1.42534024324  0.
0.361970731516 -1.51750910546  0.
0.365999780785 -1.61077784834  0.
0.369293081592 -1.70496325738  0.
0.371845368431 -1.79988083452  0.
0.373643270834 -1.89533330929  0.
0.374666044314 -1.99111550036  0.
0.374922558867 -2.0866393248  0.
</DataArray>
<DataArray type="Float64" Name="Nodal_sigma_xx" NumberOfComponents="1" format="ascii" >
-40352.6001446 
-39733.2235927 
-38474.355863 
-37192.4845626 
-35907.773959 
-34623.663746 
-33340.4583638 
-32057.7806991 
-30775.3462537 
-29493.0050621 
-28210.6939342 
-26928.3902149 
-25646.0872774 
-24363.7837892 
-23081.4797926 
-21799.1755179 
-20516.8711358 
-19234.5667829 
-17952.2626778 
-16669.9593187 
-15387.6577717 
-14105.359824 
-12823.0668393 
-11540.7733263 
-10258.4438757 
-8975.94717732 
-7692.8928425 
-6408.31366832 
-5120.14417106 
-3825.41067037 
-2522.63998231 
-1242.33660672 
-615.399493952 
-34621.2148271 
-34070.5163695 
-32971.9229766 
-31874.7253567 
-30775.7865022 
-29676.4877324 
-28577.2076974 
-27478.0050966 
-26378.8511712 
-25279.7203519 
-24180.5985575 
-23081.4797344 
-21982.3616718 
-20883.2437063 
-19784.1256967 
-18685.0076427 
-17585.8895702 
-16486.7715118 
-15387.6535209 
-14288.5356995 
-13189.4182083 
-12090.3011429 
-10991.1838866 
-9892.06284967 
-8792.9251209 
-7693.73303832 
-6594.39573968 
-5494.73161738 
-4394.56558422 
-3294.27416849 
-2197.670027 
-1103.25369512 
-555.372738304 
-23116.2761681 
-22731.4125808 
-21978.0793745 
-21244.3744595 
-20513.8426589 
-19782.763395 
-19050.8655253 
-18318.4726346 
-17585.8511069 
-16853.1410617 
-16120.4022932 
-15387.656333 
-14654.9095505 
-13922.1632567 
-13189.4174333 
-12456.6718701 
-11723.9264076 
-10991.1809165 
-10258.4351895 
-9525.68875717 
-8792.94062332 
-8060.18914309 
-7327.43315865 
-6594.67820506 
-5861.95841746 
-5129.39926904 
-4397.36917509 
-3666.78319284 
-2939.52743502 
-2218.41694772 
-1503.41786094 
-769.686664507 
-392.328785908 
-11562.5601798 
-11370.6704719 
-10991.5843199 
-10621.2551162 
-10255.7172121 
-9890.67149117 
-9525.11248622 
-9159.11579854 
-8792.88787098 
-8426.56176209 
-8060.20053821 
-7693.8290405 
-7327.45548624 
-6961.08200413 
-6594.70887993 
-6228.33599534 
-5861.96320627 
-5495.59037165 
-5129.21726248 
-4762.84340059 
-4396.46788781 
-4030.08959582 
-3663.70916486 
-3297.33722295 
-2931.02011083 
-2564.90714212 
-2199.39732283 
-1835.37583911 
-1474.29123275 
-1116.72413788 
-756.164301927 
-383.03863176 
-192.501297299 
1.75532477442e-10 
1.78260961547e-10 
1.8462742446e-10 
1.88947524293e-10 
1.8962964532e-10 
1.86219040188e-10 
1.84172677109e-10 
1.83490556083e-10 
1.80307324626e-10 
1.81444193004e-10 
1.8712853489e-10 
1.79852577276e-10 
1.75305103767e-10 
1.83035808732e-10 
1.86901161214e-10 
1.70530256582e-10 
1.49384504766e-10 
1.50521373143e-10 
1.44268597069e-10 
1.17438503366e-10 
1.20621734823e-10 
1.44041223393e-10 
1.7064394342e-10 
1.82808435056e-10 
1.45519152284e-10 
1.11640474643e-10 
1.17324816529e-10 
8.78799255588e-11 
4.53894699604e-11 
8.36735125631e-11 
9.18731757338e-11 
8.50164383337e-11 
1.0903988823e-10 
11562.5601798 
11370.6704719 
10991.5843199 
10621.2551162 
10255.7172121 
9890.67149117 
9525.11248622 
9159.11579854 
8792.88787098 
8426.56176209 
8060.20053821 
7693.8290405 
7327.45548624 
6961.08200413 
6594.70887993 
6228.33599534 
5861.96320627 
5495.59037165 
5129.21726248 
4762.84340059 
4396.46788781 
4030.08959582 
3663.70916486 
3297.33722295 
2931.02011083 
2564.90714212 
2199.39732283 
1835.37583911 
1474.29123275 
1116.72413788 
756.164301928 
383.03863176 
192.5012973 
23116.2761681 
22731.4125808 
21978.0793745 
21244.3744595 
20513.8426589 
19782.763395 
19050.8655253 
18318.4726346 
17585.8511069 
16853.1410617 
16120.4022932 
15387.656333 
14654.9095505 
13922.1632567 
13189.4174333 
12456.6718701 
11723.9264076 
10991.1809165 
10258.4351895 
9525.68875717 
8792.94062332 
8060.18914309 
7327.43315865 
6594.67820506 
5861.95841746 
5129.39926904 
4397.36917509 
3666.78319284 
2939.52743502 
2218.41694772 
1503.41786094 
769.686664507 
392.328785908 
34621.2148271 
34070.5163695 
32971.9229766 
31874.7253567 
30775.7865022 
29676.4877324 
28577.2076974 
27478.0050966 
26378.8511712 
25279.7203519 
24180.5985575 
23081.4797344 
21982.3616718 
20883.2437063 
19784.1256967 
18685.0076427 
17585.8895702 
16486.7715118 
15387.6535209 
14288.5356995 
13189.4182083 
12090.3011429 
10991.1838866 
9892.06284967 
8792.9251209 
7693.73303832 
6594.39573968 
5494.73161739 
4394.56558422 
3294.27416849 
2197.670027 
1103.25369512 
555.372738304 
40352.6001446 
39733.2235927 
38474.355863 
37192.4845626 
35907.773959 
34623.663746 
33340.4583638 
32057.7806991 
30775.3462537 
29493.0050621 
28210.6939342 
26928.3902149 
25646.0872774 
24363.7837892 
23081.4797926 
21799.1755179 
20516.8711358 
19234.5667829 
17952.2626778 
16669.9593187 
15387.6577717 
14105.359824 
12823.0668393 
11540.7733263 
10258.4438757 
8975.94717732 
7692.8928425 
6408.31366832 
5120.14417106 
3825.41067037 
2522.63998231 
1242.33660672 
615.399493952 
</DataArray>
<DataArray type="Float64" Name="Nodal_sigma_yy" NumberOfComponents="1" format="ascii" >
155.366706163 
78.2159951875 
1.48377870162 
0.50634574423 
-0.668413013972 
-0.352462468804 
-0.181620580923 
-0.0721968959961 
-0.0251411976906 
-0.00692932277707 
-0.00119972365064 
0.000186768546655 
0.000310414916839 
0.000193314496073 
9.16518481517e-05 
3.44889360804e-05 
-3.10463292408e-06 
-6.20580772193e-05 
-0.000210687636581 
-0.000568716448015 
-0.00128939806177 
-0.00232365585032 
-0.00238943991735 
0.00414059704872 
0.0361988808739 
0.142160271046 
0.449342103056 
1.1285155753 
2.96124911418 
3.99565347074 
15.552015318 
-153.09990441 
-333.65458846 
142.343464129 
82.1139506132 
12.3606300608 
0.962010010521 
-0.935346229698 
-0.754223162276 
-0.399444702528 
-0.171389629457 
-0.0622277299836 
-0.0186137985957 
-0.00393461754118 
-1.81493525133e-05 
0.000573795460014 
0.000411139963944 
0.000207008131724 
7.88165915537e-05 
-1.34671601018e-05 
-0.000159528342579 
-0.000510690486408 
-0.00131268572915 
-0.00281063345824 
-0.00456690518081 
-0.00286932411893 
0.0170098755693 
0.100285714889 
0.363386232186 
1.06031991741 
2.62737840565 
5.57813034224 
8.74128166457 
2.55914233332 
-143.848548058 
-282.794378001 
106.382712231 
73.2282089033 
23.4170147678 
3.08383291733 
-1.02492514919 
-1.19550962569 
-0.689570210403 
-0.310975433016 
-0.117792037098 
-0.0372226798728 
-0.00885597076439 
-0.000737064592215 
0.000797282266035 
0.00067739593851 
0.000361647366731 
0.000139180719884 
-3.39082261007e-05 
-0.000309855813839 
-0.000948193777788 
-0.00233886940859 
-0.00474599204759 
-0.00688806330891 
-0.000920757263884 
0.0418940170849 
0.205744007626 
0.698643738884 
1.94540567955 
4.57792190053 
8.64312016687 
10.4848825326 
-15.2603239583 
-111.053557165 
-181.574043321 
55.8959597651 
40.8532150933 
16.4703701061 
3.58977728986 
-0.48811016674 
-0.879346448597 
-0.548903999319 
-0.256853278793 
-0.100235960016 
-0.0328111385642 
-0.00834054172427 
-0.00102869313918 
0.000513447079427 
0.000518825528118 
0.000290498120918 
0.000112718875627 
-3.36626878195e-05 
-0.000268180804945 
-0.000796316542747 
-0.00190693777111 
-0.00371062455198 
-0.00485789629728 
0.00179348143907 
0.0411903560948 
0.184179404964 
0.600429690429 
1.6202180607 
3.64911257518 
6.33539801261 
4.6081687428 
-14.5196013607 
-58.6785559808 
-86.8082270478 
4.25757207267e-11 
3.38502559316e-11 
1.92414972844e-11 
1.0928147276e-11 
7.44648787077e-12 
2.94164692605e-12 
-5.62749846722e-12 
-1.27329258248e-11 
-1.86588522411e-11 
-1.82751591637e-11 
5.68434188608e-13 
1.22497567645e-11 
-2.98427949019e-12 
-2.14441797652e-11 
-1.3372414287e-11 
-1.82041048902e-11 
-5.22888399246e-11 
-3.81845666197e-11 
-4.00319777327e-11 
-1.03604236301e-10 
-1.30384592012e-10 
-9.55964196692e-11 
5.11732878294e-11 
1.38093980695e-10 
7.1386452305e-11 
3.34399175017e-11 
3.51434437107e-11 
-5.69180258481e-11 
-9.74189617864e-11 
1.08377307129e-10 
1.38593136967e-10 
8.1019635445e-11 
1.43735690017e-10 
-55.895959765 
-40.8532150932 
-16.470370106 
-3.58977728985 
0.488110166738 
0.879346448587 
0.54890399932 
0.256853278788 
0.100235959981 
0.0328111385336 
0.00834054172466 
0.00102869317172 
-0.000513447051944 
-0.000518825597538 
-0.000290498286745 
-0.000112719033098 
3.36625702175e-05 
0.000268180773752 
0.000796316574906 
0.00190693768032 
0.00371062435361 
0.00485789618872 
-0.00179348127879 
-0.0411903558116 
-0.184179404876 
-0.600429690482 
-1.62021806072 
-3.64911257533 
-6.33539801287 
-4.6081687429 
14.5196013609 
58.6785559812 
86.8082270482 
-106.382712231 
-73.2282089032 
-23.4170147678 
-3.08383291733 
1.02492514918 
1.19550962569 
0.689570210423 
0.310975433032 
0.117792037079 
0.0372226798575 
0.00885597080344 
0.000737064636382 
-0.000797282275471 
-0.000677396026276 
-0.000361647596378 
-0.000139180972724 
3.3908084049e-05 
0.000309855707883 
0.000948193777106 
0.00233886949269 
0.0047459921046 
0.00688806334171 
0.000920757347416 
-0.0418940169132 
-0.205744007494 
-0.698643738752 
-1.94540567929 
-4.57792190038 
-8.64312016706 
-10.4848825328 
15.2603239584 
111.053557165 
181.574043321 
-142.343464128 
-82.1139506132 
-12.3606300608 
-0.962010010514 
0.935346229699 
0.754223162279 
0.399444702533 
0.171389629459 
0.0622277299819 
0.0186137986004 
0.00393461756516 
1.81493305718e-05 
-0.000573795559035 
-0.000411140053302 
-0.000207008198572 
-7.88166303209e-05 
1.34671710157e-05 
0.000159528284428 
0.000510690421606 
0.00131268581566 
0.00281063363121 
0.00456690518183 
0.00286932386553 
-0.0170098757578 
-0.100285714812 
-0.363386231926 
-1.06031991715 
-2.62737840556 
-5.57813034229 
-8.74128166453 
-2.55914233318 
143.848548058 
282.794378001 
-155.366706163 
-78.2159951875 
-1.48377870161 
-0.506345744222 
0.668413013964 
0.352462468784 
0.181620580906 
0.0721968959815 
0.0251411976942 
0.00692932279253 
0.00119972362018 
-0.000186768638287 
-0.000310415035074 
-0.000193314595208 
-9.16518274607e-05 
-3.44887864685e-05 
3.10480822918e-06 
6.20581868134e-05 
0.000210687652725 
0.000568716478483 
0.00128939815772 
0.00232365576085 
0.00238943946169 
-0.00414059747902 
-0.0361988809519 
-0.142160270964 
-0.449342103166 
-1.12851557561 
-2.96124911426 
-3.99565347063 
-15.5520153179 
153.09990441 
333.65458846 
</DataArray>
<DataArray type="Float64" Name="Nodal_sigma_xy" NumberOfComponents="1" format="ascii" >
-601.09638879 
-641.784572694 
-686.109986196 
-689.425931968 
-688.456837377 
-687.416756325 
-686.839402754 
-686.580939657 
-686.483006522 
-686.451960128 
-686.444519484 
-686.443866757 
-686.444512213 
-686.445068419 
-686.445368692 
-686.445498771 
-686.445532481 
-686.445471219 
-686.445202169 
-686.444411936 
-686.442475158 
-686.43856187 
-686.432933821 
-686.432416648 
-686.467731983 
-686.639381286 
-687.220815174 
-688.85100186 
-692.8506261 
-701.26622803 
-715.344361674 
-669.046930283 
-614.274983318 
-1187.79580398 
-1206.54699198 
-1231.20600153 
-1237.6390682 
-1237.76834207 
-1237.01091281 
-1236.45388657 
-1236.17340519 
-1236.05740337 
-1236.01691183 
-1236.00547001 
-1236.00338542 
-1236.00361135 
-1236.00408307 
-1236.00438503 
-1236.00452571 
-1236.0045574 
-1236.00447013 
-1236.00413589 
-1236.00323362 
-1236.00121138 
-1235.9976474 
-1235.99425932 
-1236.00206689 
-1236.06202358 
-1236.29520898 
-1237.00332864 
-1238.81319621 
-1242.65694008 
-1248.83645884 
-1249.85732488 
-1220.08451516 
-1192.91059668 
-2165.1551196 
-2155.18794879 
-2147.59940868 
-2151.01958003 
-2152.19382841 
-2152.25730807 
-2152.12155616 
-2152.01892428 
-2151.96721131 
-2151.94592833 
-2151.93854735 
-2151.93648238 
-2151.9361172 
-2151.93616586 
-2151.93625416 
-2151.93630536 
-2151.93631237 
-2151.9362607 
-2151.93609807 
-2151.93572458 
-2151.93505724 
-2151.93439353 
-2151.93571789 
-2151.94649001 
-2151.98893298 
-2152.11871898 
-2152.45040173 
-2153.13900149 
-2154.05522415 
-2153.21413508 
-2144.24855159 
-2149.26607106 
-2161.94531885 
-2749.70419602 
-2730.95300802 
-2706.29399846 
-2699.8609318 
-2699.73165793 
-2700.48908719 
-2701.04611343 
-2701.32659481 
-2701.44259663 
-2701.48308817 
-2701.49452999 
-2701.49661458 
-2701.49638865 
-2701.49591693 
-2701.49561497 
-2701.49547429 
-2701.4954426 
-2701.49552987 
-2701.49586411 
-2701.49676638 
-2701.49878862 
-2701.5023526 
-2701.50574068 
-2701.49793311 
-2701.43797642 
-2701.20479102 
-2700.49667136 
-2698.68680379 
-2694.84305992 
-2688.66354116 
-2687.64267512 
-2717.41548483 
-2744.58940331 
-2943.593372 
-2922.83952971 
-2893.69119644 
-2883.53490798 
-2882.15550579 
-2883.06862754 
-2883.91748492 
-2884.38121178 
-2884.58257085 
-2884.6561832 
-2884.6783858 
-2884.68316848 
-2884.68325338 
-2884.68259986 
-2884.68212299 
-2884.68189051 
-2884.68184279 
-2884.68200738 
-2884.68260169 
-2884.6841389 
-2884.68741036 
-2884.69265107 
-2884.6956304 
-2884.67460333 
-2884.55440205 
-2884.12318075 
-2882.87838137 
-2879.87099517 
-2874.03892561 
-2867.30550181 
-2871.15853514 
-2907.42092759 
-2936.83437898 
-2749.70419602 
-2730.95300802 
-2706.29399846 
-2699.8609318 
-2699.73165793 
-2700.48908719 
-2701.04611343 
-2701.32659481 
-2701.44259663 
-2701.48308817 
-2701.49452999 
-2701.49661458 
-2701.49638865 
-2701.49591693 
-2701.49561497 
-2701.49547429 
-2701.4954426 
-2701.49552987 
-2701.49586411 
-2701.49676638 
-2701.49878862 
-2701.5023526 
-2701.50574068 
-2701.49793311 
-2701.43797642 
-2701.20479102 
-2700.49667136 
-2698.68680379 
-2694.84305992 
-2688.66354116 
-2687.64267512 
-2717.41548484 
-2744.58940332 
-2165.1551196 
-2155.18794879 
-2147.59940868 
-2151.01958003 
-2152.19382841 
-2152.25730807 
-2152.12155616 
-2152.01892428 
-2151.96721131 
-2151.94592833 
-2151.93854735 
-2151.93648238 
-2151.9361172 
-2151.93616586 
-2151.93625416 
-2151.93630536 
-2151.93631237 
-2151.9362607 
-2151.93609807 
-2151.93572458 
-2151.93505724 
-2151.93439353 
-2151.93571789 
-2151.94649001 
-2151.98893298 
-2152.11871898 
-2152.45040173 
-2153.13900149 
-2154.05522415 
-2153.21413508 
-2144.24855159 
-2149.26607106 
-2161.94531885 
-1187.79580398 
-1206.54699198 
-1231.20600153 
-1237.6390682 
-1237.76834207 
-1237.01091281 
-1236.45388657 
-1236.17340519 
-1236.05740337 
-1236.01691183 
-1236.00547001 
-1236.00338542 
-1236.00361135 
-1236.00408307 
-1236.00438503 
-1236.00452571 
-1236.0045574 
-1236.00447013 
-1236.00413589 
-1236.00323362 
-1236.00121138 
-1235.9976474 
-1235.99425932 
-1236.00206689 
-1236.06202358 
-1236.29520898 
-1237.00332864 
-1238.81319621 
-1242.65694008 
-1248.83645884 
-1249.85732488 
-1220.08451516 
-1192.91059668 
-601.09638879 
-641.784572695 
-686.109986196 
-689.425931968 
-688.456837377 
-687.416756325 
-686.839402754 
-686.580939657 
-686.483006522 
-686.451960128 
-686.444519484 
-686.443866757 
-686.444512213 
-686.445068419 
-686.445368692 
-686.445498771 
-686.445532481 
-686.445471219 
-686.445202169 
-686.444411936 
-686.442475159 
-686.43856187 
-686.432933821 
-686.432416648 
-686.467731983 
-686.639381286 
-687.220815174 
-688.85100186 
-692.8506261 
-701.26622803 
-715.344361674 
-669.046930283 
-614.274983318 
</DataArray>
</PointData>
<CellData>
</CellData>
<Points>
<DataArray type="Float64" Name="Points" NumberOfComponents="3" format="ascii">
0.0 -2.0 0.0
0.5 -2.0 0.0
1.0 -2.0 0.0
1.5 -2.0 0.0
2.0 -2.0 0.0
2.5 -2.0 0.0
3.0 -2.0 0.0
3.5 -2.0 0.0
4.0 -2.0 0.0
4.5 -2.0 0.0
5.0 -2.0 0.0
5.5 -2.0 0.0
6.0 -2.0 0.0
6.5 -2.0 0.0
7.0 -2.0 0.0
7.5 -2.0 0.0
8.0 -2.0 0.0
8.5 -2.0 0.0
9.0 -2.0 0.0
9.5 -2.0 0.0
10.0 -2.0 0.0
10.5 -2.0 0.0
11.0 -2.0 0.0
11.5 -2.0 0.0
12.0 -2.0 0.0
12.5 -2.0 0.0
13.0 -2.0 0.0
13.5 -2.0 0.0
14.0 -2.0 0.0
14.5 -2.0 0.0
15.0 -2.0 0.0
15.5 -2.0 0.0
16.0 -2.0 0.0
0.0 -1.5 0.0
0.5 -1.5 0.0
1.0 -1.5 0.0
1.5 -1.5 0.0
2.0 -1.5 0.0
2.5 -1.5 0.0
3.0 -1.5 0.0
3.5 -1.5 0.0
4.0 -1.5 0.0
4.5 -1.5 0.0
5.0 -1.5 0.0
5.5 -1.5 0.0
6.0 -1.5 0.0
6.5 -1.5 0.0
7.0 -1.5 0.0
7.5 -1.5 0.0
8.0 -1.5 0.0
8.5 -1.5 0.0
9.0 -1.5 0.0
9.5 -1.5 0.0
10.0 -1.5 0.0
10.5 -1.5 0.0
11.0 -1.5 0.0
11.5 -1.5 0.0
12.0 -1.5 0.0
12.5 -1.5 0.0
13.0 -1.5 0.0
13.5 -1.5 0.0
14.0 -1.5 0.0
14.5 -1.5 0.0
15.0 -1.5 0.0
15.5 -1.5 0.0
16.0 -1.5 0.0
0.0 -1.0 0.0
0.5 -1.0 0.0
1.0 -1.0 0.0
1.5 -1.0 0.0
2.0 -1.0 0.0
2.5 -1.0 0.0
3.0 -1.0 0.0
3.5 -1.0 0.0
4.0 -1.0 0.0
4.5 -1.0 0.0
5.0 -1.0 0.0
5.5 -1.0 0.0
6.0 -1.0 0.0
6.5 -1.0 0.0
7.0 -1.0 0.0
7.5 -1.0 0.0
8.0 -1.0 0.0
8.5 -1.0 0.0
9.0 -1.0 0.0
9.5 -1.0 0.0
10.0 -1.0 0.0
10.5 -1.0 0.0
11.0 -1.0 0.0
11.5 -1.0 0.0
12.0 -1.0 0.0
12.5 -1.0 0.0
13.0 -1.0 0.0
13.5 -1.0 0.0
14.0 -1.0 0.0
14.5 -1.0 0.0
15.0 -1.0 0.0
15.5 -1.0 0.0
16.0 -1.0 0.0
0.0 -0.5 0.0
0.5 -0.5 0.0
1.0 -0.5 0.0
1.5 -0.5 0.0
2.0 -0.5 0.0
2.5 -0.5 0.0
3.0 -0.5 0.0
3.5 -0.5 0.0
4.0 -0.5 0.0
4.5 -0.5 0.0
5.0 -0.5 0.0
5.5 -0.5 0.0
6.0 -0.5 0.0
6.5 -0.5 0.0
7.0 -0.5 0.0
7.5 -0.5 0.0
8.0 -0.5 0.0
8.5 -0.5 0.0
9.0 -0.5 0.0
9.5 -0.5 0.0
10.0 -0.5 0.0
10.5 -0.5 0.0
11.0 -0.5 0.0
11.5 -0.5 0.0
12.0 -0.5 0.0
12.5 -0.5 0.0
13.0 -0.5 0.0
13.5 -0.5 0.0
14.0 -0.5 0.0
14.5 -0.5 0.0
15.0 -0.5 0.0
15.5 -0.5 0.0
16.0 -0.5 0.0
0.0 0.0 0.0
0.5 0.0 0.0
1.0 0.0 0.0
1.5 0.0 0.0
2.0 0.0 0.0
2.5 0.0 0.0
3.0 0.0 0.0
3.5 0.0 0.0
4.0 0.0 0.0
4.5 0.0 0.0
5.0 0.0 0.0
5.5 0.0 0.0
6.0 0.0 0.0
6.5 0.0 0.0
7.0 0.0 0.0
7.5 0.0 0.0
8.0 0.0 0.0
8.5 0.0 0.0
9.0 0.0 0.0
9.5 0.0 0.0
10.0 0.0 0.0
10.5 0.0 0.0
11.0 0.0 0.0
11.5 0.0 0.0
12.0 0.0 0.0
12.5 0.0 0.0
13.0 0.0 0.0
13.5 0.0 0.0
14.0 0.0 0.0
14.5 0.0 0.0
15.0 0.0 0.0
15.5 0.0 0.0
16.0 0.0 0.0
0.0 0.5 0.0
0.5 0.5 0.0
1.0 0.5 0.0
1.5 0.5 0.0
2.0 0.5 0.0
2.5 0.5 0.0
3.0 0.5 0.0
3.5 0.5 0.0
4.0 0.5 0.0
4.5 0.5 0.0
5.0 0.5 0.0
5.5 0.5 0.0
6.0 0.5 0.0
6.5 0.5 0.0
7.0 0.5 0.0
7.5 0.5 0.0
8.0 0.5 0.0
8.5 0.5 0.0
9.0 0.5 0.0
9.5 0.5 0.0
10.0 0.5 0.0
10.5 0.5 0.0
11.0 0.5 0.0
11.5 0.5 0.0
12.0 0.5 0.0
12.5 0.5 0.0
13.0 0.5 0.0
13.5 0.5 0.0
14.0 0.5 0.0
14.5 0.5 0.0
15.0 0.5 0.0
15.5 0.5 0.0
16.0 0.5 0.0
0.0 1.0 0.0
0.5 1.0 0.0
1.0 1.0 0.0
1.5 1.0 0.0
2.0 1.0 0.0
2.5 1.0 0.0
3.0 1.0 0.0
3.5 1.0 0.0
4.0 1.0 0.0
4.5 1.0 0.0
5.0 1.0 0.0
5.5 1.0 0.0
6.0 1.0 0.0
6.5 1.0 0.0
7.0 1.0 0.0
7.5 1.0 0.0
8.0 1.0 0.0
8.5 1.0 0.0
9.0 1.0 0.0
9.5 1.0 0.0
10.0 1.0 0.0
10.5 1.0 0.0
11.0 1.0 0.0
11.5 1.0 0.0
12.0 1.0 0.0
12.5 1.0 0.0
13.0 1.0 0.0
13.5 1.0 0.0
14.0 1.0 0.0
14.5 1.0 0.0
15.0 1.0 0.0
15.5 1.0 0.0
16.0 1.0 0.0
0.0 1.5 0.0
0.5 1.5 0.0
1.0 1.5 0.0
1.5 1.5 0.0
2.0 1.5 0.0
2.5 1.5 0.0
3.0 1.5 0.0
3.5 1.5 0.0
4.0 1.5 0.0
4.5 1.5 0.0
5.0 1.5 0.0
5.5 1.5 0.0
6.0 1.5 0.0
6.5 1.5 0.0
7.0 1.5 0.0
7.5 1.5 0.0
8.0 1.5 0.0
8.5 1.5 0.0
9.0 1.5 0.0
9.5 1.5 0.0
10.0 1.5 0.0
10.5 1.5 0.0
11.0 1.5 0.0
11.5 1.5 0.0
12.0 1.5 0.0
12.5 1.5 0.0
13.0 1.5 0.0
13.5 1.5 0.0
14.0 1.5 0.0
14.5 1.5 0.0
15.0 1.5 0.0
15.5 1.5 0.0
16.0 1.5 0.0
0.0 2.0 0.0
0.5 2.0 0.0
1.0 2.0 0.0
1.5 2.0 0.0
2.0 2.0 0.0
2.5 2.0 0.0
3.0 2.0 0.0
3.5 2.0 0.0
4.0 2.0 0.0
4.5 2.0 0.0
5.0 2.0 0.0
5.5 2.0 0.0
6.0 2.0 0.0
6.5 2.0 0.0
7.0 2.0 0.0
7.5 2.0 0.0
8.0 2.0 0.0
8.5 2.0 0.0
9.0 2.0 0.0
9.5 2.0 0.0
10.0 2.0 0.0
10.5 2.0 0.0
11.0 2.0 0.0
11.5 2.0 0.0
12.0 2.0 0.0
12.5 2.0 0.0
13.0 2.0 0.0
13.5 2.0 0.0
14.0 2.0 0.0
14.5 2.0 0.0
15.0 2.0 0.0
15.5 2.0 0.0
16.0 2.0 0.0
</DataArray>
</Points>
<Cells>
<DataArray type="Int64" Name="connectivity" format="ascii">
0 1 34 33 
1 2 35 34 
2 3 36 35 
3 4 37 36 
4 5 38 37 
5 6 39 38 
6 7 40 39 
7 8 41 40 
8 9 42 41 
9 10 43 42 
10 11 44 43 
11 12 45 44 
12 13 46 45 
13 14 47 46 
14 15 48 47 
15 16 49 48 
16 17 50 49 
17 18 51 50 
18 19 52 51 
19 20 53 52 
20 21 54 53 
21 22 55 54 
22 23 56 55 
23 24 57 56 