<?xml version="1.0"?>
<VTKFile type="UnstructuredGrid" version="0.1" byte_order="LittleEndian" compressor="vtkZLibDataCompressor">
<UnstructuredGrid>
<Piece NumberOfPoints="297" NumberOfCells="256">
<PointData>
<DataArray type="Float64" Name="displacement" NumberOfComponents="3" format="ascii" >
0.0 -0.0342  0.
-0.0547376686204 -0.0460018690501  0.
-0.107841727304 -0.0716548177488  0.
-0.159203392841 -0.110407955648  0.
-0.208812460421 -0.161801306049  0.
-0.256674616051 -0.225381293573  0.
-0.302793427864 -0.300709067191  0.
-0.347170795789 -0.387348435079  0.
-0.389807509196 -0.48486425914  0.
-0.430703855488 -0.592821559021  0.
-0.469859919772 -0.710785345201  0.
-0.507275719903 -0.838320591496  0.
-0.542951255816 -0.974992248243  0.
-0.576886524813 -1.12036525437  0.
-0.609081524986 -1.27400454423  0.
-0.639536255376 -1.43547505066  0.
-0.668250715581 -1.60434170602  0.
-0.695224905491 -1.78016944253  0.
-0.720458825263 -1.96252319228  0.
-0.74395247566 -2.15096788719  0.
-0.765705859047 -2.34506845937  0.
-0.785718981498 -2.54438984305  0.
-0.803991856073 -2.74849698117  0.
-0.820524504179 -2.95695484423  0.
-0.835316939905 -3.16932847491  0.
-0.848369087472 -3.38518307771  0.
-0.85968048735 -3.60408412546  0.
-0.869249479364 -3.8255973898  0.
-0.877071068782 -4.04928773627  0.
-0.883132750024 -4.27471698199  0.
-0.88740276823 -4.50141660956  0.
-0.889831855246 -4.72889931337  0.
-0.89044107731 -4.9557683964  0.
0.003584765625 -0.0192375  0.
-0.0376256898761 -0.03184414552  0.
-0.0774177769294 -0.0579413952124  0.
-0.115915270389 -0.0971595191973  0.
-0.153112067028 -0.149009905843  0.
-0.189005020996 -0.213047127506  0.
-0.223593000119 -0.288831752889  0.
-0.256875759677 -0.375927939279  0.
-0.288853274228 -0.473900570481  0.
-0.319525558857 -0.582314683148  0.
-0.348892627822 -0.700735286307  0.
-0.37695448892 -0.828727352001  0.
-0.403711145565 -0.965855829185  0.
-0.42916259902 -1.11168565613  0.
-0.453308849669 -1.26578176694  0.
-0.476149897602 -1.42770909434  0.
-0.497685742833 -1.59703257068  0.
-0.517916385378 -1.77331712818  0.
-0.536841825282 -1.95612769895  0.
-0.554462062628 -2.14502921488  0.
-0.570777097452 -2.33958660798  0.
-0.585786929368 -2.53936481194  0.
-0.599491556278 -2.74392876808  0.
-0.611890970769 -2.95284344263  0.
-0.622985151646 -3.16567386955  0.
-0.632774047469 -3.38198523557  0.
-0.641257555872 -3.60134301511  0.
-0.648435536892 -3.82331294597  0.
-0.654308072499 -4.04746052687  0.
-0.658877170824 -4.27334557325  0.
-0.662152767542 -4.50051644687  0.
-0.66418276714 -4.72840241342  0.
-0.66479738998 -4.95661925385  0.
0.004096875 -0.00855  0.
-0.0233981552426 -0.0216405064669  0.
-0.0499602428568 -0.0481464887314  0.
-0.0756217660692 -0.087698569797  0.
-0.10041356216 -0.139876300406  0.
-0.12433834768 -0.204238584967  0.
-0.147395212456 -0.280348665128  0.
-0.169583025288 -0.367770700598  0.
-0.190901142865 -0.466069443842  0.
-0.211349276007 -0.574809789424  0.
-0.230927315394 -0.69355667352  0.
-0.249635226548 -0.821875035944  0.
-0.267473001289 -0.959329813956  0.
-0.284440638955 -1.10548594228  0.
-0.300538140294 -1.25990835423  0.
-0.315765505936 -1.42216198255  0.
-0.330122736201 -1.59181175971  0.
-0.343609831148 -1.76842261811  0.
-0.356226790528 -1.95155949013  0.
-0.367973613472 -2.14078730822  0.
-0.378850297809 -2.33567100519  0.
-0.388856839122 -2.5357755152  0.
-0.397993230972 -2.74066577618  0.
-0.406259472385 -2.94990673523  0.
-0.413655601954 -3.16306335718  0.
-0.420181810154 -3.37970063286  0.
-0.425838745572 -3.59938354155  0.
-0.430628220856 -3.82167690156  0.
-0.43455456928 -4.04614435145  0.
-0.437625953053 -4.27234673571  0.
-0.439853997 -4.49982876337  0.
-0.441200814011 -4.72815758058  0.
-0.441597384786 -4.95706199633  0.
0.002560546875 -0.0021375  0.
-0.0111928443021 -0.0154981340974  0.
-0.0244797947698 -0.0422532242178  0.
-0.0373145346855 -0.0820218847514  0.
-0.0497092123527 -0.134397582107  0.
-0.0616702050804 -0.198954694635  0.
-0.0731978237191 -0.275259424033  0.
-0.0842913683975 -0.362876614032  0.
-0.0949502925417 -0.461370857089  0.
-0.105174317589 -0.570306878548  0.
-0.114963327892 -0.689249510487  0.
-0.12431728299 -0.817763645835  0.
-0.13323617142 -0.955414203788  0.
-0.141719991078 -1.1017661133  0.
-0.149768742177 -1.25638430629  0.
-0.157382425181 -1.41883371536  0.
-0.164561040362 -1.58867927315  0.
-0.171304587757 -1.76548591229  0.
-0.177613067082 -1.94881856559  0.
-0.183486477457 -2.1382421662  0.
-0.188924816876 -2.33332164796  0.
-0.193928081811 -2.53362194497  0.
-0.198496268952 -2.73870798841  0.
-0.202629386269 -2.94814469317  0.
-0.206327493967 -3.16149691724  0.
-0.209590825366 -3.37832935357  0.
-0.212420086695 -3.59820630637  0.
-0.214817066109 -3.82069126193  0.
-0.216785410063 -4.04534678132  0.
-0.218330111309 -4.27173498556  0.
-0.219446702498 -4.49942927313  0.
-0.220113770832 -4.72804758078  0.
-0.220310825164 -4.95727749468  0.
0.0 0.0  0.
8.16297390024e-17 -0.0134483524018  0.
1.69752445556e-16 -0.0402862804731  0.
2.6205093593e-16 -0.0801286565509  0.
3.57033213029e-16 -0.132571655191  0.
4.47093383989e-16 -0.197193631635  0.
5.40337944895e-16 -0.273563157048  0.
6.35061879621e-16 -0.361245314093  0.
7.31552949366e-16 -0.459804685013  0.
8.14003342532e-16 -0.568805915396  0.
9.09863424421e-16 -0.687813791089  0.
9.96898341422e-16 -0.816393182537  0.
1.09439426677e-15 -0.95410900021  0.
1.21104063576e-15 -1.10052617016  0.
1.26955249769e-15 -1.25520962357  0.
1.3457012138e-15 -1.41772429293  0.
1.44715779662e-15 -1.58763511096  0.
1.51730643536e-15 -1.76450701042  0.
1.58862251612e-15 -1.94790492427  0.
1.6709762859e-15 -2.13739378601  0.
1.74660210897e-15 -2.33253852988  0.
1.85300901957e-15 -2.53290408978  0.
1.93056984053e-15 -2.73805539313  0.
1.97091547972e-15 -2.9475573386  0.
2.01448030905e-15 -3.1609747311  0.
2.13335923078e-15 -3.37787212464  0.
2.22529499271e-15 -3.59781349465  0.
2.29802914634e-15 -3.82036182916  0.
2.28603692082e-15 -4.04507905546  0.
2.36923404821e-15 -4.2715304838  0.
2.42396582082e-15 -4.49930012178  0.
2.4680305634e-15 -4.72801398363  0.
2.57525263212e-15 -4.95734361801  0.
-0.002560546875 -0.0021375  0.
0.0111928443021 -0.0154981340974  0.
0.0244797947698 -0.0422532242178  0.
0.0373145346855 -0.0820218847514  0.
0.0497092123527 -0.134397582107  0.
0.0616702050804 -0.198954694635  0.
0.0731978237191 -0.275259424033  0.
0.0842913683975 -0.362876614032  0.
0.0949502925417 -0.461370857089  0.
0.105174317589 -0.570306878548  0.
0.114963327892 -0.689249510487  0.
0.12431728299 -0.817763645835  0.
0.13323617142 -0.955414203788  0.
0.141719991078 -1.1017661133  0.
0.149768742177 -1.25638430629  0.
0.157382425181 -1.41883371536  0.
0.164561040362 -1.58867927315  0.
0.171304587757 -1.76548591229  0.
0.177613067082 -1.94881856559  0.
0.183486477457 -2.1382421662  0.
0.188924816876 -2.33332164796  0.
0.193928081811 -2.53362194497  0.
0.198496268952 -2.73870798841  0.
0.202629386269 -2.94814469317  0.
0.206327493967 -3.16149691724  0.
0.209590825366 -3.37832935357  0.
0.212420086695 -3.59820630637  0.
0.214817066109 -3.82069126193  0.
0.216785410063 -4.04534678132  0.
0.218330111309 -4.27173498556  0.
0.219446702498 -4.49942927313  0.
0.220113770832 -4.72804758078  0.
0.220310825164 -4.95727749468  0.
-0.004096875 -0.00855  0.
0.0233981552426 -0.0216405064669  0.
0.0499602428568 -0.0481464887314  0.
0.0756217660692 -0.087698569797  0.
0.10041356216 -0.139876300406  0.
0.12433834768 -0.204238584967  0.
0.147395212456 -0.280348665128  0.
0.169583025288 -0.367770700598  0.
0.190901142865 -0.466069443842  0.
0.211349276007 -0.574809789424  0.
0.230927315394 -0.69355667352  0.
0.249635226548 -0.821875035944  0.
0.267473001289 -0.959329813956  0.
0.284440638955 -1.10548594228  0.
0.300538140294 -1.25990835423  0.
0.315765505936 -1.42216198255  0.
0.330122736201 -1.59181175971  0.
0.343609831148 -1.76842261811  0.
0.356226790528 -1.95155949013  0.
0.367973613472 -2.14078730822  0.
0.378850297809 -2.33567100519  0.
0.388856839122 -2.5357755152  0.
0.397993230972 -2.74066577618  0.
0.406259472385 -2.94990673523  0.
0.413655601954 -3.16306335718  0.
0.420181810154 -3.37970063286  0.
0.425838745572 -3.59938354155  0.
0.430628220856 -3.82167690156  0.
0.43455456928 -4.04614435145  0.
0.437625953053 -4.27234673571  0.
0.439853997 -4.49982876337  0.
0.441200814011 -4.72815758058  0.
0.441597384786 -4.95706199633  0.
-0.003584765625 -0.0192375  0.
0.0376256898761 -0.03184414552  0.
0.0774177769294 -0.0579413952124  0.
0.115915270389 -0.0971595191973  0.
0.153112067028 -0.149009905843  0.
0.189005020996 -0.213047127506  0.
0.223593000119 -0.288831752889  0.
0.256875759677 -0.375927939279  0.
0.288853274228 -0.473900570481  0.
0.319525558857 -0.582314683148  0.
0.348892627823 -0.700735286307  0.
0.37695448892 -0.828727352001  0.
0.403711145565 -0.965855829185  0.
0.42916259902 -1.11168565613  0.
0.453308849669 -1.26578176694  0.
0.476149897602 -1.42770909434  0.
0.497685742833 -1.59703257068  0.
0.517916385378 -1.77331712818  0.
0.536841825282 -1.95612769895  0.
0.554462062628 -2.14502921488  0.
0.570777097452 -2.33958660798  0.
0.585786929368 -2.53936481194  0.
0.599491556278 -2.74392876808  0.
0.611890970769 -2.95284344263  0.
0.622985151646 -3.16567386955  0.
0.632774047469 -3.38198523557  0.
0.641257555872 -3.60134301511  0.
0.648435536892 -3.82331294597  0.
0.654308072499 -4.04746052687  0.
0.658877170824 -4.27334557325  0.
0.662152767542 -4.50051644687  0.
0.66418276714 -4.72840241342  0.
0.66479738998 -4.95661925385  0.
0.0 -0.0342  0.
0.0547376686204 -0.0460018690501  0.
0.107841727304 -0.0716548177488  0.
0.159203392841 -0.110407955648  0.
0.208812460421 -0.161801306049  0.
0.256674616051 -0.225381293573  0.
0.302793427864 -0.300709067191  0.
0.347170795789 -0.387348435079  0.
0.389807509196 -0.48486425914  0.
0.430703855488 -0.592821559021  0.
0.469859919772 -0.710785345201  0.
0.507275719903 -0.838320591496  0.
0.542951255816 -0.974992248243  0.
0.576886524813 -1.12036525437  0.
0.609081524986 -1.27400454423  0.
0.639536255376 -1.43547505066  0.
0.668250715581 -1.60434170602  0.
0.695224905491 -1.78016944253  0.
0.720458825263 -1.96252319228  0.
0.74395247566 -2.15096788719  0.
0.765705859047 -2.34506845937  0.
0.785718981498 -2.54438984305  0.
0.803991856073 -2.74849698117  0.
0.820524504179 -2.95695484423  0.
0.835316939905 -3.16932847491  0.
0.848369087472 -3.38518307771  0.
0.85968048735 -3.60408412546  0.
0.869249479364 -3.8255973898  0.
0.877071068782 -4.04928773627  0.
0.883132750024 -4.27471698199  0.
0.88740276823 -4.50141660956  0.
0.889831855246 -4.72889931337  0.
0.89044107731 -4.9557683964  0.
</DataArray>
<DataArray type="Float64" Name="Nodal_sigma_xx" NumberOfComponents="1" format="ascii" >
-95837.4253434 
-94366.4060327 
-91376.5951746 
-88332.1508361 
-85280.9631525 
-82231.2013969 
-79183.588614 
-76137.2291605 
-73091.4473526 
-70045.8870224 
-67000.3980938 
-63954.9267604 
-60909.4572838 
-57863.9864993 
-54818.5145074 
-51773.0418551 
-48727.5689476 
-45682.0961095 
-42636.6238597 
-39591.1533819 
-36545.6872078 
-33500.229582 
-30454.7837434 
-27409.3366499 
-24363.8042049 
-21317.8745461 
-18270.6205009 
-15219.7449623 
-12160.3424063 
-9085.35034212 
-5991.26995799 
-2950.54944096 
-1461.57379814 
-82225.3852144 
-80917.4763776 
-78308.3170695 
-75702.4727222 
-73092.4929426 
-70481.6583646 
-67870.8682814 
-65260.2621045 
-62649.7715316 
-60039.3358358 
-57428.921574 
-54818.5143692 
-52208.1089704 
-49597.7038026 
-46987.2985296 
-44376.8931514 
-41766.4877293 
-39156.0823404 
-36545.6771121 
-33935.2722864 
-31324.8682448 
-28714.4652144 
-26104.0617306 
-23493.649268 
-20883.1971621 
-18272.615966 
-15661.6898817 
-13049.9875913 
-10437.0932625 
-7823.90115017 
-5219.46631413 
-2620.2275259 
-1319.01025347 
-54901.1558992 
-53987.1048793 
-52197.9385144 
-50455.3893413 
-48720.3763149 
-46984.0630631 
-45245.8056225 
-43506.3725072 
-41766.3963789 
-40026.2100216 
-38285.9554463 
-36545.6837908 
-34805.4101825 
-33065.1377347 
-31324.8664041 
-29584.5956915 
-27844.3252181 
-26104.0546766 
-24363.783575 
-22623.5107983 
-20883.2339804 
-19142.9492148 
-17402.6537518 
-15662.360737 
-13922.1512415 
-12182.323264 
-10443.7517908 
-8708.61008299 
-6981.37765817 
-5268.74025083 
-3570.61741973 
-1828.0058282 
-931.780866532 
-27461.080427 
-27005.3423709 
-26105.0127597 
-25225.480901 
-24357.3283787 
-23490.3447915 
-22622.1421548 
-21752.9000215 
-20883.1086936 
-20013.084185 
-19142.9762783 
-18272.8439712 
-17402.7067798 
-16532.5697598 
-15662.4335898 
-14792.2979889 
-13922.1626149 
-13052.0271327 
-12181.8909984 
-11311.7530764 
-10441.6112335 
-9571.46279006 
-8701.30926655 
-7831.1759045 
-6961.17276322 
-6091.65446253 
-5223.56864171 
-4359.01761788 
-3501.44167779 
-2652.21982746 
-1795.89021708 
-909.716750431 
-457.190581086 
1.7462298274e-10 
1.80079950951e-10 
1.85536919162e-10 
1.87355908565e-10 
1.87355908565e-10 
1.77806214197e-10 
1.70530256582e-10 
1.75077730091e-10 
1.82353687705e-10 
1.82353687705e-10 
1.87810655916e-10 
2.04636307899e-10 
2.06455297302e-10 
1.55523594003e-10 
1.00726538221e-10 
1.16187948151e-10 
1.47565515363e-10 
1.10503606265e-10 
8.66293703439e-11 
1.42335920827e-10 
1.90539140021e-10 
1.31421984406e-10 
5.82076609135e-11 
1.3869794202e-11 
-9.20863385545e-12 
4.70663508167e-11 
1.03455022327e-10 
1.02829744719e-10 
1.10901510197e-10 
2.21120899369e-10 
4.07567313232e-10 
4.83822759634e-10 
4.56765292256e-10 
27461.080427 
27005.3423709 
26105.0127597 
25225.480901 
24357.3283787 
23490.3447915 
22622.1421548 
21752.9000215 
20883.1086936 
20013.084185 
19142.9762783 
18272.8439712 
17402.7067798 
16532.5697598 
15662.4335898 
14792.2979889 
13922.1626149 
13052.0271327 
12181.8909984 
11311.7530764 
10441.6112335 
9571.46279006 
8701.30926655 
7831.1759045 
6961.17276322 
6091.65446253 
5223.56864171 
4359.01761788 
3501.44167779 
2652.21982746 
1795.89021708 
909.716750431 
457.190581087 
54901.1558992 
53987.1048793 
52197.9385144 
50455.3893413 
48720.3763149 
46984.0630631 
45245.8056225 
43506.3725072 
41766.3963789 
40026.2100216 
38285.9554463 
36545.6837908 
34805.4101825 
33065.1377347 
31324.8664041 
29584.5956915 
27844.3252181 
26104.0546766 
24363.783575 
22623.5107983 
20883.2339804 
19142.9492148 
17402.6537518 
15662.360737 
13922.1512415 
12182.323264 
10443.7517908 
8708.61008299 
6981.37765817 
5268.74025083 
3570.61741973 
1828.0058282 
931.780866532 
82225.3852144 
80917.4763776 
78308.3170695 
75702.4727222 
73092.4929426 
70481.6583646 
67870.8682814 
65260.2621045 
62649.7715316 
60039.3358358 
57428.921574 
54818.5143692 
52208.1089704 
49597.7038026 
46987.2985296 
44376.8931514 
41766.4877293 
39156.0823404 
36545.6771121 
33935.2722864 
31324.8682448 
28714.4652144 
26104.0617306 
23493.649268 
20883.1971621 
18272.615966 
15661.6898817 
13049.9875913 
10437.0932625 
7823.90115017 
5219.46631413 
2620.2275259 
1319.01025347 
95837.4253434 
94366.4060327 
91376.5951746 
88332.1508361 
85280.9631525 
82231.2013969 
79183.588614 
76137.2291605 
73091.4473526 
70045.8870224 
67000.3980938 
63954.9267604 
60909.4572838 
57863.9864993 
54818.5145074 
51773.0418551 
48727.5689476 
45682.0961095 
42636.6238597 
39591.1533819 
36545.6872078 
33500.229582 
30454.7837434 
27409.3366499 
24363.8042049 
21317.8745461 
18270.6205009 
15219.7449623 
12160.3424063 
9085.35034212 
5991.26995799 
2950.54944096 
1461.57379814 
</DataArray>
<DataArray type="Float64" Name="Nodal_sigma_yy" NumberOfComponents="1" format="ascii" >
368.995927135 
185.762988569 
3.52397441629 
1.20257114248 
-1.5874809082 
-0.837098363333 
-0.431348879512 
-0.171467627812 
-0.0597103443761 
-0.0164571413779 
-0.00284934343836 
0.000443575373538 
0.00073723553669 
0.000459122054963 
0.000217672950384 
8.19109563963e-05 
-7.37388245398e-06 
-0.000147388351252 
-0.000500383239341 
-0.00135070163833 
-0.0030623202224 
-0.00551868210414 
-0.0056749191458 
0.00983391840191 
0.0859723417457 
0.337630642919 
1.0671874941 
2.68022449104 
7.03296664563 
9.48967699231 
36.9360363796 
-363.612272974 
-792.429647591 
338.065727303 
195.020632705 
29.3564963941 
2.28477377494 
-2.22144729553 
-1.79128001036 
-0.948681168446 
-0.407050369905 
-0.147790858612 
-0.0442077715165 
-0.00934471661662 
-4.31047551501e-05 
0.00136276431022 
0.00097645757296 
0.000491644335625 
0.00018718936326 
-3.19846067214e-05 
-0.000378879801929 
-0.00121288967966 
-0.00311762863691 
-0.00667525479037 
-0.0108464000299 
-0.00681464475508 
0.0403984546899 
0.23817857303 
0.863042301281 
2.51825980349 
6.24002371321 
13.2480595628 
20.7605439534 
6.0779630413 
-341.640301638 
-671.636647752 
252.658941548 
173.916996144 
55.6154100732 
7.32410317861 
-2.43419722928 
-2.839335361 
-1.63772924974 
-0.738566653446 
-0.279756088096 
-0.0884038647267 
-0.0210329306988 
-0.00175052850341 
0.00189354539975 
0.00160881550551 
0.0008589128729 
0.000330554492166 
-8.0532058746e-05 
-0.000735907603712 
-0.0022519601074 
-0.00555481473316 
-0.0112717312148 
-0.0163591506341 
-0.00218679920476 
0.099498289827 
0.488642018105 
1.65927887997 
4.62033848871 
10.8725645138 
20.5274103969 
24.9015960156 
-36.2432694007 
-263.752198267 
-431.238352887 
132.752904441 
97.0263858458 
39.1171290016 
8.52572106334 
-1.15926164599 
-2.0884478154 
-1.30364699837 
-0.610026537105 
-0.238060404992 
-0.0779264541406 
-0.0198087867125 
-0.00244314623444 
0.00121943681657 
0.00123221067378 
0.000689933202125 
0.000267707466122 
-7.99487924326e-05 
-0.000636929493368 
-0.0018912520553 
-0.00452897716285 
-0.00881273283369 
-0.0115375033404 
0.00425951798786 
0.0978270947289 
0.437426085912 
1.42602051427 
3.84801789397 
8.66664236615 
15.0465702803 
10.9444007644 
-34.4840532315 
-139.361570454 
-206.169539239 
4.30873114965e-11 
3.56976670446e-11 
1.62572177942e-11 
9.66338120634e-13 
-8.07176547823e-12 
-2.32205366046e-11 
-4.58157956018e-11 
-3.05817593471e-11 
6.13908923697e-12 
-8.01492205937e-12 
7.38964445191e-13 
6.14193140791e-11 
4.78621586808e-11 
-9.22000253922e-11 
-2.19614548769e-10 
-2.42636133407e-10 
-1.22412302517e-10 
-7.80033815317e-11 
-1.68284941537e-10 
-6.82263134877e-11 
5.71418468098e-11 
-7.16795511835e-11 
-2.04551042771e-10 
-3.28853388964e-10 
-4.46817693955e-10 
-3.74377862045e-10 
-1.35507605137e-10 
3.08872927235e-11 
1.44297018778e-10 
6.21456663907e-10 
1.12147802156e-09 
1.14435039222e-09 
1.02519948086e-09 
-132.752904441 
-97.0263858458 
-39.1171290015 
-8.52572106333 
1.15926164598 
2.08844781535 
1.30364699831 
0.610026537075 
0.238060404962 
0.0779264541013 
0.019808786684 
0.0024431462173 
-0.00121943688171 
-0.00123221088614 
-0.000689933452321 
-0.000267707715579 
7.99484894856e-05 
0.000636929233124 
0.00189125194636 
0.00452897721422 
0.00881273294557 
0.011537503197 
-0.00425951857389 
-0.0978270953748 
-0.43742608644 
-1.42602051485 
-3.84801789451 
-8.66664236645 
-15.0465702802 
-10.9444007638 
34.4840532323 
139.361570455 
206.169539239 
-252.658941547 
-173.916996144 
-55.6154100731 
-7.32410317859 
2.43419722928 
2.83933536098 
1.63772924968 
0.738566653354 
0.279756087955 
0.0884038645675 
0.0210329305804 
0.00175052841962 
-0.00189354544159 
-0.00160881550312 
-0.000858912813896 
-0.000330554420543 
8.05319964456e-05 
0.000735907490139 
0.00225196021631 
0.00555481478341 
0.0112717309358 
0.0163591501902 
0.00218679845335 
-0.0994982903331 
-0.488642017894 
-1.65927887961 
-4.62033848855 
-10.8725645137 
-20.5274103966 
-24.9015960155 
36.2432694003 
263.752198267 
431.238352887 
-338.065727303 
-195.020632705 
-29.3564963941 
-2.28477377494 
2.22144729553 
1.7912800104 
0.948681168466 
0.407050369899 
0.147790858589 
0.0442077714617 
0.00934471657752 
4.31047649272e-05 
-0.00136276422268 
-0.000976457414936 
-0.000491644237854 
-0.000187189326198 
3.19846969887e-05 
0.000378879887649 
0.00121288973196 
0.00311762851413 
0.00667525438541 
0.010846399774 
0.00681464468391 
-0.0403984547067 
-0.238178572815 
-0.863042301084 
-2.51825980366 
-6.24002371362 
-13.2480595632 
-20.7605439536 
-6.07796304138 
341.640301639 
671.636647753 
-368.995927135 
-185.762988569 
-3.52397441629 
-1.20257114249 
1.58748090819 
0.837098363392 
0.431348879658 
0.171467627987 
0.0597103445407 
0.0164571415244 
0.0028493435384 
-0.000443575343525 
-0.000737235503948 
-0.000459121984022 
-0.000217672934014 
-8.19110391603e-05 
7.37382652005e-06 
0.000147388385358 
0.000500383244798 
0.00135070153146 
0.00306232008006 
0.00551868233651 
0.00567491974334 
-0.00983391805744 
-0.0859723418985 
-0.337630643663 
-1.06718749557 
-2.68022449267 
-7.03296664689 
-9.48967699307 
-36.9360363795 
363.612272975 
792.429647593 
</DataArray>
<DataArray type="Float64" Name="Nodal_sigma_xy" NumberOfComponents="1" format="ascii" >
-1427.60392338 
-1524.23836015 
-1629.51121722 
-1637.38658843 
-1635.08498877 
-1632.61479627 
-1631.24358154 
-1630.62973169 
-1630.39714049 
-1630.3234053 
-1630.30573378 
-1630.30418355 
-1630.30571651 
-1630.3070375 
-1630.30775064 
-1630.30805958 
-1630.30813964 
-1630.30799415 
-1630.30735515 
-1630.30547835 
-1630.3008785 
-1630.29158444 
-1630.27821782 
-1630.27698954 
-1630.36086346 
-1630.76853055 
-1632.14943604 
-1636.02112942 
-1645.52023699 
-1665.50729157 
-1698.94285898 
-1588.98645942 
-1458.90308538 
-2821.01503444 
-2865.54910594 
-2924.11425365 
-2939.39278698 
-2939.69981242 
-2937.90091791 
-2936.5779806 
-2935.91183733 
-2935.636333 
-2935.54016559 
-2935.51299127 
-2935.50804037 
-2935.50857696 
-2935.50969728 
-2935.51041444 
-2935.51074857 
-2935.51082382 
-2935.51061657 
-2935.50982274 
-2935.50767984 
-2935.50287703 
-2935.49441258 
-2935.48636589 
-2935.50490886 
-2935.647306 
-2936.20112132 
-2937.88290552 
-2942.18134099 
-2951.31023269 
-2965.98658974 
-2968.41114658 
-2897.70072352 
-2833.16266713 
-5142.24340906 
-5118.57137839 
-5100.54859562 
-5108.67150256 
-5111.46034248 
-5111.61110666 
-5111.28869589 
-5111.04494517 
-5110.92212687 
-5110.87157979 
-5110.85404997 
-5110.84914566 
-5110.84827835 
-5110.84839391 
-5110.84860362 
-5110.84872522 
-5110.84874187 
-5110.84861916 
-5110.84823291 
-5110.84734588 
-5110.84576095 
-5110.84418463 
-5110.84732999 
-5110.87291378 
-5110.97371584 
-5111.28195758 
-5112.0697041 
-5113.70512853 
-5115.88115735 
-5113.88357082 
-5092.59031003 
-5104.50691877 
-5134.62013227 
-6530.54746555 
-6486.01339406 
-6427.44824635 
-6412.16971302 
-6411.86268758 
-6413.66158208 
-6414.9845194 
-6415.65066267 
-6415.926167 
-6416.02233441 
-6416.04950873 
-6416.05445963 
-6416.05392304 
-6416.05280271 
-6416.05208556 
-6416.05175143 
-6416.05167618 
-6416.05188343 
-6416.05267726 
-6416.05482016 
-6416.05962297 
-6416.06808742 
-6416.07613411 
-6416.05759114 
-6415.915194 
-6415.36137868 
-6413.67959447 
-6409.38115901 
-6400.25226731 
-6385.57591026 
-6383.15135342 
-6453.86177648 
-6518.39983287 
-6991.03425851 
-6941.74388307 
-6872.51659154 
-6848.39540645 
-6845.11932626 
-6847.2879904 
-6849.30402668 
-6850.40537797 
-6850.88360578 
-6851.05843511 
-6851.11116629 
-6851.12252514 
-6851.12272678 
-6851.12117468 
-6851.12004211 
-6851.11948997 
-6851.11937662 
-6851.11976752 
-6851.12117902 
-6851.1248299 
-6851.13259961 
-6851.1450463 
-6851.15212219 
-6851.10218291 
-6850.81670486 
-6849.79255429 
-6846.83615576 
-6839.69361352 
-6825.84244831 
-6809.85056679 
-6819.00152096 
-6905.12470304 
-6974.98165008 
-6530.54746555 
-6486.01339406 
-6427.44824635 
-6412.16971302 
-6411.86268758 
-6413.66158208 
-6414.9845194 
-6415.65066267 
-6415.926167 
-6416.02233441 
-6416.04950873 
-6416.05445963 
-6416.05392304 
-6416.05280271 
-6416.05208556 
-6416.05175143 
-6416.05167618 
-6416.05188343 
-6416.05267726 
-6416.05482016 
-6416.05962297 
-6416.06808742 
-6416.07613411 
-6416.05759114 
-6415.915194 
-6415.36137868 
-6413.67959447 
-6409.38115901 
-6400.25226731 
-6385.57591026 
-6383.15135342 
-6453.86177648 
-6518.39983287 
-5142.24340906 
-5118.57137839 
-5100.54859562 
-5108.67150256 
-5111.46034248 
-5111.61110666 
-5111.28869589 
-5111.04494517 
-5110.92212687 
-5110.87157979 
-5110.85404997 
-5110.84914566 
-5110.84827835 
-5110.84839391 
-5110.84860362 
-5110.84872522 
-5110.84874187 
-5110.84861916 
-5110.84823291 
-5110.84734588 
-5110.84576095 
-5110.84418463 
-5110.84732999 
-5110.87291378 
-5110.97371584 
-5111.28195758 
-5112.0697041 
-5113.70512853 
-5115.88115735 
-5113.88357082 
-5092.59031003 
-5104.50691877 
-5134.62013227 
-2821.01503444 
-2865.54910594 
-2924.11425365 
-2939.39278698 
-2939.69981242 
-2937.90091791 
-2936.5779806 
-2935.91183733 
-2935.636333 
-2935.54016559 
-2935.51299127 
-2935.50804037 
-2935.50857696 
-2935.50969728 
-2935.51041444 
-2935.51074857 
-2935.51082382 
-2935.51061657 
-2935.50982274 
-2935.50767984 
-2935.50287703 
-2935.49441258 
-2935.48636589 
-2935.50490886 
-2935.647306 
-2936.20112132 
-2937.88290552 
-2942.18134099 
-2951.31023269 
-2965.98658974 
-2968.41114658 
-2897.70072352 
-2833.16266713 
-1427.60392338 
-1524.23836015 
-1629.51121722 
-1637.38658843 
-1635.08498877 
-1632.61479627 
-1631.24358154 
-1630.62973169 
-1630.39714049 
-1630.3234053 
-1630.30573378 
-1630.30418355 
-1630.30571651 
-1630.3070375 
-1630.30775064 
-1630.30805958 
-1630.30813964 
-1630.30799415 
-1630.30735515 
-1630.30547835 
-1630.3008785 
-1630.29158444 
-1630.27821782 
-1630.27698954 
-1630.36086346 
-1630.76853055 
-1632.14943604 
-1636.02112942 
-1645.52023699 
-1665.50729157 
-1698.94285898 
-1588.98645942 
-1458.90308538 
</DataArray>
</PointData>
<CellData>
</CellData>
<Points>
<DataArray type="Float64" Name="Points" NumberOfComponents="3" format="ascii">
0.0 -2.0 0.0
0.5 -2.0 0.0
1.0 -2.0 0.0
1.5 -2.0 0.0
2.0 -2.0 0.0
2.5 -2.0 0.0
3.0 -2.0 0.0
3.5 -2.0 0.0
4.0 -2.0 0.0
4.5 -2.0 0.0
5.0 -2.0 0.0
5.5 -2.0 0.0
6.0 -2.0 0.0
6.5 -2.0 0.0
7.0 -2.0 0.0
7.5 -2.0 0.0
8.0 -2.0 0.0
8.5 -2.0 0.0
9.0 -2.0 0.0
9.5 -2.0 0.0
10.0 -2.0 0.0
10.5 -2.0 0.0
11.0 -2.0 0.0
11.5 -2.0 0.0
12.0 -2.0 0.0
12.5 -2.0 0.0
13.0 -2.0 0.0
13.5 -2.0 0.0
14.0 -2.0 0.0
14.5 -2.0 0.0
15.0 -2.0 0.0
15.5 -2.0 0.0
16.0 -2.0 0.0
0.0 -1.5 0.0
0.5 -1.5 0.0
1.0 -1.5 0.0
1.5 -1.5 0.0
2.0 -1.5 0.0
2.5 -1.5 0.0
3.0 -1.5 0.0
3.5 -1.5 0.0
4.0 -1.5 0.0
4.5 -1.5 0.0
5.0 -1.5 0.0
5.5 -1.5 0.0
6.0 -1.5 0.0
6.5 -1.5 0.0
7.0 -1.5 0.0
7.5 -1.5 0.0
8.0 -1.5 0.0
8.5 -1.5 0.0
9.0 -1.5 0.0
9.5 -1.5 0.0
10.0 -1.5 0.0
10.5 -1.5 0.0
11.0 -1.5 0.0
11.5 -1.5 0.0
12.0 -1.5 0.0
12.5 -1.5 0.0
13.0 -1.5 0.0
13.5 -1.5 0.0
14.0 -1.5 0.0
14.5 -1.5 0.0
15.0 -1.5 0.0
15.5 -1.5 0.0
16.0 -1.5 0.0
0.0 -1.0 0.0
0.5 -1.0 0.0
1.0 -1.0 0.0
1.5 -1.0 0.0
2.0 -1.0 0.0
2.5 -1.0 0.0
3.0 -1.0 0.0
3.5 -1.0 0.0
4.0 -1.0 0.0
4.5 -1.0 0.0
5.0 -1.0 0.0
5.5 -1.0 0.0
6.0 -1.0 0.0
6.5 -1.0 0.0
7.0 -1.0 0.0
7.5 -1.0 0.0
8.0 -1.0 0.0
8.5 -1.0 0.0
9.0 -1.0 0.0
9.5 -1.0 0.0
10.0 -1.0 0.0
10.5 -1.0 0.0
11.0 -1.0 0.0
11.5 -1.0 0.0
12.0 -1.0 0.0
12.5 -1.0 0.0
13.0 -1.0 0.0
13.5 -1.0 0.0
14.0 -1.0 0.0
14.5 -1.0 0.0
15.0 -1.0 0.0
15.5 -1.0 0.0
16.0 -1.0 0.0
0.0 -0.5 0.0
0.5 -0.5 0.0
1.0 -0.5 0.0
1.5 -0.5 0.0
2.0 -0.5 0.0
2.5 -0.5 0.0
3.0 -0.5 0.0
3.5 -0.5 0.0
4.0 -0.5 0.0
4.5 -0.5 0.0
5.0 -0.5 0.0
5.5 -0.5 0.0
6.0 -0.5 0.0
6.5 -0.5 0.0
7.0 -0.5 0.0
7.5 -0.5 0.0
8.0 -0.5 0.0
8.5 -0.5 0.0
9.0 -0.5 0.0
9.5 -0.5 0.0
10.0 -0.5 0.0
10.5 -0.5 0.0
11.0 -0.5 0.0
11.5 -0.5 0.0
12.0 -0.5 0.0
12.5 -0.5 0.0
13.0 -0.5 0.0
13.5 -0.5 0.0
14.0 -0.5 0.0
14.5 -0.5 0.0
15.0 -0.5 0.0
15.5 -0.5 0.0
16.0 -0.5 0.0
0.0 0.0 0.0
0.5 0.0 0.0
1.0 0.0 0.0
1.5 0.0 0.0
2.0 0.0 0.0
2.5 0.0 0.0
3.0 0.0 0.0
3.5 0.0 0.0
4.0 0.0 0.0
4.5 0.0 0.0
5.0 0.0 0.0
5.5 0.0 0.0
6.0 0.0 0.0
6.5 0.0 0.0
7.0 0.0 0.0
7.5 0.0 0.0
8.0 0.0 0.0
8.5 0.0 0.0
9.0 0.0 0.0
9.5 0.0 0.0
10.0 0.0 0.0
10.5 0.0 0.0
11.0 0.0 0.0
11.5 0.0 0.0
12.0 0.0 0.0
12.5 0.0 0.0
13.0 0.0 0.0
13.5 0.0 0.0
14.0 0.0 0.0
14.5 0.0 0.0
15.0 0.0 0.0
15.5 0.0 0.0
16.0 0.0 0.0
0.0 0.5 0.0
0.5 0.5 0.0
1.0 0.5 0.0
1.5 0.5 0.0
2.0 0.5 0.0
2.5 0.5 0.0
3.0 0.5 0.0
3.5 0.5 0.0
4.0 0.5 0.0
4.5 0.5 0.0
5.0 0.5 0.0
5.5 0.5 0.0
6.0 0.5 0.0
6.5 0.5 0.0
7.0 0.5 0.0
7.5 0.5 0.0
8.0 0.5 0.0
8.5 0.5 0.0
9.0 0.5 0.0
9.5 0.5 0.0
10.0 0.5 0.0
10.5 0.5 0.0
11.0 0.5 0.0
11.5 0.5 0.0
12.0 0.5 0.0
12.5 0.5 0.0
13.0 0.5 0.0
13.5 0.5 0.0
14.0 0.5 0.0
14.5 0.5 0.0
15.0 0.5 0.0
15.5 0.5 0.0
16.0 0.5 0.0
0.0 1.0 0.0
0.5 1.0 0.0
1.0 1.0 0.0
1.5 1.0 0.0
2.0 1.0 0.0
2.5 1.0 0.0
3.0 1.0 0.0
3.5 1.0 0.0
4.0 1.0 0.0
4.5 1.0 0.0
5.0 1.0 0.0
5.5 1.0 0.0
6.0 1.0 0.0
6.5 1.0 0.0
7.0 1.0 0.0
7.5 1.0 0.0
8.0 1.0 0.0
8.5 1.0 0.0
9.0 1.0 0.0
9.5 1.0 0.0
10.0 1.0 0.0
10.5 1.0 0.0
11.0 1.0 0.0
11.5 1.0 0.0
12.0 1.0 0.0
12.5 1.0 0.0
13.0 1.0 0.0
13.5 1.0 0.0
14.0 1.0 0.0
14.5 1.0 0.0
15.0 1.0 0.0
15.5 1.0 0.0
16.0 1.0 0.0
0.0 1.5 0.0
0.5 1.5 0.0
1.0 1.5 0.0
1.5 1.5 0.0
2.0 1.5 0.0
2.5 1.5 0.0
3.0 1.5 0.0
3.5 1.5 0.0
4.0 1.5 0.0
4.5 1.5 0.0
5.0 1.5 0.0
5.5 1.5 0.0
6.0 1.5 0.0
6.5 1.5 0.0
7.0 1.5 0.0
7.5 1.5 0.0
8.0 1.5 0.0
8.5 1.5 0.0
9.0 1.5 0.0
9.5 1.5 0.0
10.0 1.5 0.0
10.5 1.5 0.0
11.0 1.5 0.0
11.5 1.5 0.0
12.0 1.5 0.0
12.5 1.5 0.0
13.0 1.5 0.0
13.5 1.5 0.0
14.0 1.5 0.0
14.5 1.5 0.0
15.0 1.5 0.0
15.5 1.5 0.0
16.0 1.5 0.0
0.0 2.0 0.0
0.5 2.0 0.0
1.0 2.0 0.0
1.5 2.0 0.0
2.0 2.0 0.0
2.5 2.0 0.0
3.0 2.0 0.0
3.5 2.0 0.0
4.0 2.0 0.0
4.5 2.0 0.0
5.0 2.0 0.0
5.5 2.0 0.0
6.0 2.0 0.0
6.5 2.0 0.0
7.0 2.0 0.0
7.5 2.0 0.0
8.0 2.0 0.0
8.5 2.0 0.0
9.0 2.0 0.0
9.5 2.0 0.0
10.0 2.0 0.0
10.5 2.0 0.0
11.0 2.0 0.0
11.5 2.0 0.0
12.0 2.0 0.0
12.5 2.0 0.0
13.0 2.0 0.0
13.5 2.0 0.0
14.0 2.0 0.0
14.5 2.0 0.0
15.0 2.0 0.0
15.5 2.0 0.0
16.0 2.0 0.0
</DataArray>
</Points>
<Cells>
<DataArray type="Int64" Name="connectivity" format="ascii">
0 1 34 33 
1 2 35 34 
2 3 36 35 
3 4 37 36 
4 5 38 37 
5 6 39 38 
6 7 40 39 
7 8 41 40 
8 9 42 41 
9 10 43 42 
10 11 44 43 
11 12 45 44 
12 13 46 45 
13 14 47 46 
14 15 48 47 
15 16 49 48 
16 17 50 49 
17 18 51 50 
18 19 52 51 
19 20 53 52 
20 21 54 53 
21 22 55 54 
22 23 56 55 
23 24 57 56 
24 25 58 57 
25 26 59 58 
26 27 60 59 
27 28 61 60 
28 29 62 61 
29 30 63 62 
30 31 64 63 
31 32 65 64 
33 34 67 66 
34 35 68 67 
35 36 69 68 
36 37 70 69 
37 38 71 70 
38 39 72 71 