<?xml version="1.0"?>
<VTKFile type="UnstructuredGrid" version="0.1" byte_order="LittleEndian" compressor="vtkZLibDataCompressor">
<UnstructuredGrid>
<Piece NumberOfPoints="297" NumberOfCells="256">
<PointData>
<DataArray type="Float64" Name="displacement" NumberOfComponents="3" format="ascii" >
0.0 -0.0216  0.
-0.0345711591287 -0.0290538120317  0.
-0.0681105646131 -0.0452556743677  0.
-0.100549511268 -0.0697313404091  0.
-0.13188155395 -0.102190298557  0.
-0.162110283822 -0.142346080151  0.
-0.19123795444 -0.189921516121  0.
-0.219265765761 -0.244641116892  0.
-0.246194216334 -0.306230058404  0.
-0.272023487677 -0.374413616223  0.
-0.29675363354 -0.448917060127  0.
-0.320384665202 -0.529465636734  0.
-0.34291658262 -0.615784577837  0.
-0.364349384092 -0.707599108021  0.
-0.384683068412 -0.80463444899  0.
-0.403917634974 -0.906615821471  0.
-0.422053083525 -1.01326844591  0.
-0.439089413994 -1.12431754265  0.
-0.455026626482 -1.23948833197  0.
-0.46986472147 -1.35850603401  0.
-0.48360370045 -1.48109586908  0.
-0.496243567262 -1.60698305877  0.
-0.507784330151 -1.73589283021  0.
-0.518226002639 -1.86755042793  0.
-0.527568593624 -2.00168114205  0.
-0.535812055245 -2.13801036487  0.
-0.542956097273 -2.27626365818  0.
-0.548999671177 -2.41616677251  0.
-0.553939622389 -2.55744488607  0.
-0.557768052647 -2.69982125178  0.
-0.56046490625 -2.84299996393  0.
-0.561999066471 -2.98667325055  0.
-0.562383838301 -3.1299589872  0.
0.0022640625 -0.01215  0.
-0.023763593606 -0.0201120919074  0.
-0.0488954380607 -0.0365945653973  0.
-0.0732096444564 -0.0613639068614  0.
-0.0967023581229 -0.0941115194795  0.
-0.119371592208 -0.13455608053  0.
-0.141216631654 -0.182420054456  0.
-0.162237321901 -0.237428172176  0.
-0.182433646881 -0.299305623461  0.
-0.20180561612 -0.36777769462  0.
-0.220353238625 -0.442569654509  0.
-0.238076519318 -0.523406748632  0.
-0.254975460357 -0.610014207906  0.
-0.271050062539 -0.702117256505  0.
-0.286300326107 -0.799441115964  0.
-0.300726251117 -0.901711006953  0.
-0.314327837579 -1.0086521499  0.
-0.327105085502 -1.11998976517  0.
-0.339057994915 -1.23544907302  0.
-0.35018656587 -1.35475529361  0.
-0.360490798391 -1.47763364715  0.
-0.369970692232 -1.60380935491  0.
-0.37862624607 -1.733007643  0.
-0.386457455222 -1.86495375324  0.
-0.393464306303 -1.99937297024  0.
-0.399646766823 -2.1359906751  0.
-0.40500477213 -2.27453243059  0.
-0.409538233826 -2.41472396587  0.
-0.413247203684 -2.55629085908  0.
-0.416132949994 -2.6989550989  0.
-0.418201747921 -2.84243144013  0.
-0.419483852931 -2.986359419  0.
-0.419872035777 -3.13049637085  0.
0.0025875 -0.0054  0.
-0.0147777822585 -0.0136676882949  0.
-0.0315538375937 -0.0304083086724  0.
-0.0477611154121 -0.0553885703981  0.
-0.0634190918908 -0.0883429265725  0.
-0.0785294827453 -0.128992790505  0.
-0.0930917131304 -0.177062314818  0.
-0.107105068603 -0.232276231956  0.
-0.120569142862 -0.294359648742  0.
-0.133483753267 -0.363037761742  0.
-0.145848830775 -0.438035793802  0.
-0.157664353609 -0.51907897007  0.
-0.168930316604 -0.605892514078  0.
-0.17964671934 -0.698201647753  0.
-0.189813562291 -0.795731592148  0.
-0.199430845854 -0.898207567928  0.
-0.208498570232 -1.00535479561  0.
-0.217016735462 -1.11689849565  0.
-0.224985341386 -1.2325638885  0.
-0.232404387456 -1.35207619466  0.
-0.239273872301 -1.47516063486  0.
-0.24559379313 -1.60154243065  0.
-0.251364145877 -1.73094680601  0.
-0.256584929927 -1.86309899067  0.
-0.261256169655 -1.99772422559  0.
-0.26537798536 -2.13454776812  0.
-0.268950786677 -2.27329486835  0.
-0.271975718435 -2.41369067467  0.
-0.27445551744 -2.55545959039  0.
-0.27639533877 -2.69832425413  0.
-0.277802524421 -2.84199711371  0.
-0.278653145691 -2.98620478774  0.
-0.278903611444 -3.13077599768  0.
0.0016171875 -0.00135  0.
-0.00706916482235 -0.0097882952194  0.
-0.0154609230125 -0.0266862468744  0.
-0.0235670745382 -0.0518032956325  0.
-0.0313952920122 -0.0848826834358  0.
-0.0389496032086 -0.125655596612  0.
-0.0462302044542 -0.173848057284  0.
-0.0532366537247 -0.229185229915  0.
-0.0599686058158 -0.291392120267  0.
-0.0664258847932 -0.360193818031  0.
-0.0726084176157 -0.435315480308  0.
-0.0785161787305 -0.516482302633  0.
-0.084149160897 -0.603419497129  0.
-0.0895073627858 -0.695852282083  0.
-0.0945907845328 -0.793505877657  0.
-0.09939942643 -0.896105504437  0.
-0.10393328865 -1.00337638304  0.
-0.108192371215 -1.11504373408  0.
-0.112176673946 -1.23083277827  0.
-0.115886196288 -1.35046873655  0.
-0.119320936975 -1.47367683029  0.
-0.122480893775 -1.60018228104  0.
-0.125366064602 -1.72971030847  0.
-0.127976454485 -1.861986122  0.
-0.130312101453 -1.9967348951  0.
-0.132373152863 -2.13368169699  0.
-0.134160054755 -2.27255135139  0.
-0.13567393649 -2.41306816543  0.
-0.136917101092 -2.55495586189  0.
-0.137892701879 -2.69793788561  0.
-0.138597917367 -2.84174480408  0.
-0.139019223683 -2.98613531418  0.
-0.139143679051 -3.1309121019  0.
0.0 0.0  0.
8.38960112418e-17 -0.00849369625377  0.
1.72981481886e-16 -0.0254439666146  0.
2.66494659425e-16 -0.0506075725585  0.
3.6154250712e-16 -0.0837294664366  0.
4.58091436146e-16 -0.124543346296  0.
5.52452560813e-16 -0.172776730767  0.
6.49738882187e-16 -0.228154935216  0.
7.44438972734e-16 -0.290402958955  0.
8.31645292611e-16 -0.359245841303  0.
9.22248575078e-16 -0.434408710161  0.
1.01985222603e-15 -0.515616746865  0.
1.11110103115e-15 -0.602595158028  0.
1.22004761847e-15 -0.695069160102  0.
1.29403063118e-15 -0.79276397278  0.
1.37747171598e-15 -0.895404816589  0.
1.45026924537e-15 -1.00271691219  0.
1.54945523528e-15 -1.11442548026  0.
1.67462593607e-15 -1.23025574164  0.
1.73928689559e-15 -1.34993291748  0.
1.82836865121e-15 -1.4731822294  0.
1.93486674876e-15 -1.59972889881  0.
2.0430275182e-15 -1.72929814303  0.
2.13307577542e-15 -1.86161516122  0.
2.17977396721e-15 -1.99640509332  0.
2.24989679547e-15 -2.13339292082  0.
2.24489551725e-15 -2.27230325978  0.
2.32296453365e-15 -2.41286010262  0.
2.34564884571e-15 -2.55478677187  0.
2.38841327647e-15 -2.69780872661  0.
2.39558649244e-15 -2.84166323481  0.
2.38681932716e-15 -2.98611409492  0.
2.45004600464e-15 -3.13095386401  0.
-0.0016171875 -0.00135  0.
0.00706916482235 -0.0097882952194  0.
0.0154609230125 -0.0266862468744  0.
0.0235670745382 -0.0518032956325  0.
0.0313952920122 -0.0848826834358  0.
0.0389496032086 -0.125655596612  0.
0.0462302044542 -0.173848057284  0.
0.0532366537247 -0.229185229915  0.
0.0599686058158 -0.291392120267  0.
0.0664258847932 -0.360193818031  0.
0.0726084176157 -0.435315480308  0.
0.0785161787305 -0.516482302633  0.
0.084149160897 -0.603419497129  0.
0.0895073627858 -0.695852282083  0.
0.0945907845328 -0.793505877657  0.
0.09939942643 -0.896105504437  0.
0.10393328865 -1.00337638304  0.
0.108192371215 -1.11504373408  0.
0.112176673946 -1.23083277827  0.
0.115886196288 -1.35046873655  0.
0.119320936975 -1.47367683029  0.
0.122480893775 -1.60018228104  0.
0.125366064602 -1.72971030847  0.
0.127976454485 -1.861986122  0.
0.130312101453 -1.9967348951  0.
0.132373152863 -2.13368169699  0.
0.134160054755 -2.27255135139  0.
0.13567393649 -2.41306816543  0.
0.136917101092 -2.55495586189  0.
0.137892701879 -2.69793788561  0.
0.138597917367 -2.84174480408  0.
0.139019223683 -2.98613531418  0.
0.139143679051 -3.1309121019  0.
-0.0025875 -0.0054  0.
0.0147777822585 -0.0136676882949  0.
0.0315538375937 -0.0304083086724  0.
0.0477611154121 -0.0553885703981  0.
0.0634190918908 -0.0883429265725  0.
0.0785294827453 -0.128992790505  0.
0.0930917131304 -0.177062314818  0.
0.107105068603 -0.232276231956  0.
0.120569142862 -0.294359648742  0.
0.133483753267 -0.363037761742  0.
0.145848830775 -0.438035793802  0.
0.157664353609 -0.51907897007  0.
0.168930316604 -0.605892514078  0.
0.17964671934 -0.698201647753  0.
0.189813562291 -0.795731592148  0.
0.199430845854 -0.898207567928  0.
0.208498570232 -1.00535479561  0.
0.217016735462 -1.11689849565  0.
0.224985341386 -1.2325638885  0.
0.232404387456 -1.35207619466  0.
0.239273872301 -1.47516063486  0.
0.24559379313 -1.60154243065  0.
0.251364145877 -1.73094680601  0.
0.256584929927 -1.86309899067  0.
0.261256169655 -1.99772422559  0.
0.26537798536 -2.13454776812  0.
0.268950786677 -2.27329486835  0.
0.271975718435 -2.41369067467  0.
0.27445551744 -2.55545959039  0.
0.27639533877 -2.69832425413  0.
0.277802524421 -2.84199711371  0.
0.278653145691 -2.98620478774  0.
0.278903611444 -3.13077599768  0.
-0.0022640625 -0.01215  0.
0.023763593606 -0.0201120919074  0.
0.0488954380607 -0.0365945653973  0.
0.0732096444564 -0.0613639068614  0.
0.0967023581229 -0.0941115194795  0.
0.119371592208 -0.13455608053  0.
0.141216631654 -0.182420054456  0.
0.162237321901 -0.237428172176  0.
0.182433646881 -0.299305623461  0.
0.20180561612 -0.36777769462  0.
0.220353238625 -0.442569654509  0.
0.238076519318 -0.523406748632  0.
0.254975460357 -0.610014207906  0.
0.271050062539 -0.702117256505  0.
0.286300326107 -0.799441115964  0.
0.300726251117 -0.901711006953  0.
0.314327837579 -1.0086521499  0.
0.327105085502 -1.11998976517  0.
0.339057994915 -1.23544907302  0.
0.35018656587 -1.35475529361  0.
0.360490798391 -1.47763364715  0.
0.369970692232 -1.60380935491  0.
0.37862624607 -1.733007643  0.
0.386457455222 -1.86495375324  0.
0.393464306303 -1.99937297024  0.
0.399646766823 -2.1359906751  0.
0.40500477213 -2.27453243059  0.
0.409538233826 -2.41472396587  0.
0.413247203684 -2.55629085908  0.
0.416132949994 -2.6989550989  0.
0.418201747921 -2.84243144013  0.
0.419483852931 -2.986359419  0.
0.419872035777 -3.13049637085  0.
0.0 -0.0216  0.
0.0345711591287 -0.0290538120317  0.
0.0681105646131 -0.0452556743677  0.
0.100549511268 -0.0697313404091  0.
0.13188155395 -0.102190298557  0.
0.162110283822 -0.142346080151  0.
0.19123795444 -0.189921516121  0.
0.219265765761 -0.244641116892  0.
0.246194216334 -0.306230058404  0.
0.272023487677 -0.374413616223  0.
0.29675363354 -0.448917060127  0.
0.320384665202 -0.529465636734  0.
0.34291658262 -0.615784577837  0.
0.364349384092 -0.707599108021  0.
0.384683068412 -0.80463444899  0.
0.403917634974 -0.906615821471  0.
0.422053083525 -1.01326844591  0.
0.439089413994 -1.12431754265  0.
0.455026626482 -1.23948833197  0.
0.46986472147 -1.35850603401  0.
0.48360370045 -1.48109586908  0.
0.496243567262 -1.60698305877  0.
0.507784330151 -1.73589283021  0.
0.518226002639 -1.86755042793  0.
0.527568593624 -2.00168114205  0.
0.535812055245 -2.13801036487  0.
0.542956097273 -2.27626365818  0.
0.548999671177 -2.41616677251  0.
0.553939622389 -2.55744488607  0.
0.557768052647 -2.69982125178  0.
0.56046490625 -2.84299996393  0.
0.561999066471 -2.98667325055  0.
0.562383838301 -3.1299589872  0.
</DataArray>
<DataArray type="Float64" Name="Nodal_sigma_xx" NumberOfComponents="1" format="ascii" >
-60528.9002169 
-59599.8353891 
-57711.5337945 
-55788.7268439 
-53861.6609384 
-51935.4956191 
-50010.6875457 
-48086.6710487 
-46163.0193806 
-44239.5075931 
-42316.0409014 
-40392.5853224 
-38469.1309161 
-36545.6756838 
-34622.2196889 
-32698.7632769 
-30775.3067037 
-28851.8501744 
-26928.3940167 
-25004.938978 
-23081.4866575 
-21158.039736 
-19234.600259 
-17311.1599894 
-15387.6658136 
-13463.920766 
-11539.3392637 
-9612.47050248 
-7680.21625659 
-5738.11600555 
-3783.95997347 
-1863.50491008 
-923.099240928 
-51931.8222407 
-51105.7745543 
-49457.884465 
-47812.0880351 
-46163.6797532 
-44514.7315987 
-42865.8115461 
-41217.0076449 
-39568.2767568 
-37919.5805279 
-36270.8978362 
-34622.2196016 
-32973.5425076 
-31324.8655595 
-29676.188545 
-28027.511464 
-26378.8343553 
-24730.1572676 
-23081.4802814 
-21432.8035493 
-19784.1273125 
-18135.4517144 
-16486.7758299 
-14838.0942745 
-13189.3876814 
-11540.5995575 
-9891.59360952 
-8242.09742608 
-6591.84837633 
-4941.41125274 
-3296.5050405 
-1654.88054268 
-833.059107457 
-34674.4142521 
-34097.1188712 
-32967.1190618 
-31866.5616892 
-30770.7639884 
-29674.1450925 
-28576.2982879 
-27477.7089519 
-26378.7766604 
-25279.7115926 
-24180.6034398 
-23081.4844994 
-21982.3643258 
-20883.244885 
-19784.12615 
-18685.0078051 
-17585.8896114 
-16486.7713747 
-15387.6527842 
-14288.5331358 
-13189.410935 
-12090.2837146 
-10991.149738 
-9892.0173076 
-8792.93762619 
-7694.09890355 
-6596.05376264 
-5500.17478925 
-4409.29115253 
-3327.62542158 
-2255.12679141 
-1154.52999676 
-588.493178863 
-17343.8402697 
-17056.0057079 
-16487.3764798 
-15931.8826743 
-15383.5758181 
-14836.0072368 
-14287.6687293 
-13738.6736978 
-13189.3318065 
-12639.8426431 
-12090.3008073 
-11540.7435608 
-10991.1832294 
-10441.6230062 
-9892.0633199 
-9342.50399301 
-8792.9448094 
-8243.38555748 
-7693.82589372 
-7144.26510089 
-6594.70183171 
-6045.13439372 
-5495.5637473 
-4946.00583442 
-4396.53016624 
-3847.36071318 
-3299.09598424 
-2753.06375866 
-2211.43684913 
-1675.08620681 
-1134.24645289 
-574.557947641 
-288.751945949 
1.81898940355e-10 
1.84172677109e-10 
1.87583282241e-10 
1.91903382074e-10 
1.94177118829e-10 
1.95541360881e-10 
1.95313987206e-10 
1.94631866179e-10 
1.87810655916e-10 
1.8212631403e-10 
1.89857018995e-10 
1.84172677109e-10 
1.6916601453e-10 
1.52795109898e-10 
1.54159351951e-10 
1.85082171811e-10 
1.66210156749e-10 
1.51089807332e-10 
1.95427674043e-10 
2.21461959882e-10 
1.99861460715e-10 
1.8212631403e-10 
1.80989445653e-10 
1.71098690771e-10 
2.0656898414e-10 
2.18506102101e-10 
1.98326688405e-10 
7.90691956354e-11 
3.87103682442e-11 
1.22781784739e-10 
8.39008862386e-11 
6.44320152787e-11 
8.42561576064e-11 
17343.8402697 
17056.0057079 
16487.3764798 
15931.8826743 
15383.5758181 
14836.0072368 
14287.6687293 
13738.6736978 
13189.3318065 
12639.8426431 
12090.3008073 
11540.7435608 
10991.1832294 
10441.6230062 
9892.0633199 
9342.50399301 
8792.9448094 
8243.38555748 
7693.82589372 
7144.26510089 
6594.70183171 
6045.13439372 
5495.5637473 
4946.00583442 
4396.53016624 
3847.36071318 
3299.09598424 
2753.06375866 
2211.43684913 
1675.08620681 
1134.24645289 
574.557947641 
288.751945949 
34674.4142521 
34097.1188712 
32967.1190618 
31866.5616892 
30770.7639884 
29674.1450925 
28576.2982879 
27477.7089519 
26378.7766604 
25279.7115926 
24180.6034398 
23081.4844994 
21982.3643258 
20883.244885 
19784.12615 
18685.0078051 
17585.8896114 
16486.7713747 
15387.6527842 
14288.5331358 
13189.410935 
12090.2837146 
10991.149738 
9892.0173076 
8792.93762619 
7694.09890355 
6596.05376264 
5500.17478925 
4409.29115253 
3327.62542158 
2255.12679141 
1154.52999676 
588.493178863 
51931.8222407 
51105.7745543 
49457.884465 
47812.0880351 
46163.6797532 
44514.7315987 
42865.8115461 
41217.0076449 
39568.2767568 
37919.5805279 
36270.8978362 
34622.2196016 
32973.5425076 
31324.8655595 
29676.188545 
28027.511464 
26378.8343553 
24730.1572676 
23081.4802814 
21432.8035493 
19784.1273125 
18135.4517144 
16486.7758299 
14838.0942745 
13189.3876814 
11540.5995575 
9891.59360952 
8242.09742608 
6591.84837633 
4941.41125274 
3296.5050405 
1654.88054268 
833.059107457 
60528.9002169 
59599.8353891 
57711.5337945 
55788.7268439 
53861.6609384 
51935.4956191 
50010.6875457 
48086.6710487 
46163.0193806 
44239.5075931 
42316.0409014 
40392.5853224 
38469.1309161 
36545.6756838 
34622.2196889 
32698.7632769 
30775.3067037 
28851.8501744 
26928.3940167 
25004.938978 
23081.4866575 
21158.039736 
19234.600259 
17311.1599894 
15387.6658136 
13463.920766 
11539.3392637 
9612.47050248 
7680.21625659 
5738.11600555 
3783.95997347 
1863.50491008 
923.099240928 
</DataArray>
<DataArray type="Float64" Name="Nodal_sigma_yy" NumberOfComponents="1" format="ascii" >
233.050059244 
117.323992781 
2.2256680524 
0.759518616309 
-1.00261952098 
-0.52869370319 
-0.27243087138 
-0.108295344003 
-0.0377117965345 
-0.0103939841474 
-0.00179958547915 
0.000280152827145 
0.000465622481443 
0.000289971790153 
0.000137477665248 
5.17332773597e-05 
-4.65706534669e-06 
-9.30872324716e-05 
-0.000316031471357 
-0.000853074403949 
-0.00193409668418 
-0.0034854832877 
-0.0035841594331 
0.00621089538936 
0.0542983208748 
0.213240406567 
0.674013154924 
1.69277336324 
4.44187367116 
5.99348020618 
23.3280229773 
-229.649856615 
-500.481882689 
213.515196192 
123.170925919 
18.5409450911 
1.44301501575 
-1.40301934455 
-1.1313347434 
-0.599167053789 
-0.257084444171 
-0.0933415949262 
-0.0279206978055 
-0.00590192627578 
-2.72240386039e-05 
0.000860693188997 
0.000616709868154 
0.000310512078727 
0.00011822474039 
-2.02009015311e-05 
-0.000239292493461 
-0.000766035585684 
-0.00196902851098 
-0.0042159501661 
-0.00685035774632 
-0.00430398608063 
0.0255148132849 
0.150428572206 
0.545079348136 
1.5904798759 
3.94106760841 
8.36719551327 
13.1119224968 
3.83871349991 
-215.772822087 
-424.191567001 
159.574068346 
109.842313354 
35.1255221516 
4.62574937598 
-1.53738772375 
-1.79326443852 
-1.03435531561 
-0.466463149522 
-0.176688055609 
-0.05583401975 
-0.0132839561295 
-0.00110559688824 
0.00119592343697 
0.0010160939824 
0.000542471186463 
0.000208771107395 
-5.08624734152e-05 
-0.000464783786072 
-0.00142229066762 
-0.00350830421581 
-0.00711898816746 
-0.0103320950212 
-0.00138113599678 
0.0628410255829 
0.308616011504 
1.04796560817 
2.91810851901 
6.86688285089 
12.9646802506 
15.7273237989 
-22.8904859377 
-166.580335748 
-272.361064982 
83.8439396473 
61.2798226397 
24.705555159 
5.38466593477 
-0.732165250091 
-1.31901967287 
-0.823355998979 
-0.385279918195 
-0.150353939994 
-0.0492167078153 
-0.0125108125971 
-0.00154303971917 
0.000770170674748 
0.000778238464328 
0.000435747429563 
0.000169078503717 
-5.04940354773e-05 
-0.000402271409897 
-0.00119447502655 
-0.00286040668934 
-0.00556593673778 
-0.00728684434031 
0.00269022207181 
0.0617855339785 
0.276269107417 
0.900644535789 
2.43032709129 
5.4736688628 
9.50309701889 
6.91225311428 
-21.7794020409 
-88.0178339712 
-130.212340572 
4.43947101303e-11 
3.48450157617e-11 
1.60582658282e-11 
6.62225829728e-12 
7.7591266745e-12 
8.29913915368e-12 
8.21387402539e-12 
6.28119778412e-12 
7.67386154621e-13 
5.9827698351e-12 
2.20694573727e-11 
1.34434685606e-11 
-4.63771243631e-11 
-9.29887278289e-11 
-5.09317032993e-11 
6.93347601555e-11 
-1.95825577975e-11 
-1.76726189238e-10 
3.06954461848e-12 
1.77450942829e-10 
6.00692828812e-11 
-2.85780288323e-11 
-1.25055521494e-12 
7.91118281995e-11 
2.84025247765e-10 
3.98607369334e-10 
3.37053052135e-10 
2.37552200133e-11 
-4.38316050122e-11 
2.58869370384e-10 
3.02711633537e-10 
1.85861992463e-10 
1.36299860287e-10 
-83.8439396472 
-61.2798226396 
-24.7055551589 
-5.38466593474 
0.732165250121 
1.3190196729 
0.82335599898 
0.385279918195 
0.150353939999 
0.0492167078354 
0.012510812602 
0.00154303969964 
-0.000770170677811 
-0.000778238479043 
-0.00043574750795 
-0.000169078584392 
5.04938600301e-05 
0.000402271073952 
0.00119447485017 
0.00286040671484 
0.00556593669963 
0.00728684430281 
-0.00269022190184 
-0.061785533605 
-0.276269107025 
-0.900644535407 
-2.43032709098 
-5.47366886288 
-9.50309701911 
-6.91225311431 
21.779402041 
88.0178339712 
130.212340572 
-159.574068346 
-109.842313354 
-35.1255221516 
-4.62574937596 
1.53738772377 
1.79326443853 
1.03435531561 
0.466463149509 
0.176688055619 
0.0558340198157 
0.013283956176 
0.00110559691802 
-0.00119592340513 
-0.00101609401361 
-0.000542471331585 
-0.000208771425321 
5.08622036364e-05 
0.000464783679263 
0.00142229047509 
0.00350830391437 
0.00711898797613 
0.0103320949254 
0.0013811360563 
-0.0628410253559 
-0.308616011353 
-1.04796560821 
-2.91810851918 
-6.86688285109 
-12.9646802508 
-15.7273237992 
22.8904859373 
166.580335748 
272.361064982 
-213.515196192 
-123.170925919 
-18.5409450911 
-1.44301501576 
1.40301934454 
1.1313347434 
0.599167053771 
0.257084444157 
0.0933415949248 
0.0279206978196 
0.0059019262917 
2.72240283721e-05 
-0.000860693260051 
-0.000616709988776 
-0.00031051218275 
-0.00011822486897 
2.02008706083e-05 
0.000239292612946 
0.000766035609104 
0.00196902860864 
0.00421595036755 
0.00685035778292 
0.00430398597473 
-0.0255148135482 
-0.150428572406 
-0.545079348341 
-1.59047987612 
-3.94106760852 
-8.36719551335 
-13.1119224968 
-3.83871349999 
215.772822087 
424.191567002 
-233.050059244 
-117.323992781 
-2.2256680524 
-0.759518616326 
1.00261952097 
0.528693703185 
0.272430871342 
0.108295343989 
0.0377117965195 
0.0103939840724 
0.00179958538365 
-0.000280152973119 
-0.000465622600586 
-0.000289971812435 
-0.000137477637963 
-5.17331986885e-05 
4.65723132947e-06 
9.30873666221e-05 
0.000316031544344 
0.000853074898259 
0.00193409727331 
0.00348548353463 
0.0035841594447 
-0.00621089578135 
-0.0542983213613 
-0.213240406923 
-0.674013155095 
-1.69277336328 
-4.44187367128 
-5.9934802061 
-23.3280229772 
229.649856615 
500.48188269 
</DataArray>
<DataArray type="Float64" Name="Nodal_sigma_xy" NumberOfComponents="1" format="ascii" >
-901.644583185 
-962.676859042 
-1029.16497929 
-1034.13889795 
-1032.68525607 
-1031.12513449 
-1030.25910413 
-1029.87140949 
-1029.72450978 
-1029.67794019 
-1029.66677923 
-1029.66580014 
-1029.66676832 
-1029.66760263 
-1029.66805304 
-1029.66824816 
-1029.66829872 
-1029.66820683 
-1029.66780325 
-1029.6666179 
-1029.66371274 
-1029.6578428 
-1029.64940073 
-1029.64862497 
-1029.70159798 
-1029.95907193 
-1030.83122276 
-1033.27650279 
-1039.27593915 
-1051.89934204 
-1073.01654251 
-1003.57039542 
-921.412474976 
-1781.69370596 
-1809.82048796 
-1846.8090023 
-1856.4586023 
-1856.65251311 
-1855.51636921 
-1854.68082985 
-1854.26010779 
-1854.08610505 
-1854.02536774 
-1854.00820501 
-1854.00507813 
-1854.00541703 
-1854.0061246 
-1854.00657754 
-1854.00678857 
-1854.0068361 
-1854.0067052 
-1854.00620384 
-1854.00485042 
-1854.00181707 
-1853.9964711 
-1853.99138898 
-1854.00310033 
-1854.09303537 
-1854.44281346 
-1855.50499296 
-1858.21979431 
-1863.98541012 
-1873.25468826 
-1874.78598731 
-1830.12677275 
-1789.36589503 
-3247.7326794 
-3232.78192319 
-3221.39911302 
-3226.52937004 
-3228.29074262 
-3228.3859621 
-3228.18233425 
-3228.02838642 
-3227.95081697 
-3227.9188925 
-3227.90782103 
-3227.90472357 
-3227.9041758 
-3227.90424879 
-3227.90438123 
-3227.90445804 
-3227.90446855 
-3227.90439105 
-3227.9041471 
-3227.90358687 
-3227.90258586 
-3227.90159029 
-3227.90357684 
-3227.91973502 
-3227.98339948 
-3228.17807847 
-3228.67560259 
-3229.70850223 
-3231.08283622 
-3229.82120262 
-3216.37282739 
-3223.89910659 
-3242.91797828 
-4124.55629403 
-4096.42951203 
-4059.4409977 
-4049.7913977 
-4049.59748689 
-4050.73363079 
-4051.56917015 
-4051.98989221 
-4052.16389495 
-4052.22463226 
-4052.24179499 
-4052.24492187 
-4052.24458297 
-4052.2438754 
-4052.24342246 
-4052.24321143 
-4052.2431639 
-4052.2432948 
-4052.24379616 
-4052.24514958 
-4052.24818293 
-4052.2535289 
-4052.25861102 
-4052.24689967 
-4052.15696463 
-4051.80718653 
-4050.74500704 
-4048.03020569 
-4042.26458988 
-4032.99531174 
-4031.46401269 
-4076.12322725 
-4116.88410497 
-4415.390058 
-4384.25929457 
-4340.53679465 
-4325.30236197 
-4323.23325869 
-4324.60294131 
-4325.87622737 
-4326.57181766 
-4326.87385628 
-4326.98427481 
-4327.01757871 
-4327.02475272 
-4327.02488007 
-4327.0238998 
-4327.02318449 
-4327.02283577 
-4327.02276418 
-4327.02301107 
-4327.02390254 
-4327.02620836 
-4327.03111554 
-4327.03897661 
-4327.04344559 
-4327.01190499 
-4326.83160307 
-4326.18477113 
-4324.31757206 
-4319.80649275 
-4311.05838841 
-4300.95825271 
-4306.73780271 
-4361.13139139 
-4405.25156847 
-4124.55629403 
-4096.42951203 
-4059.4409977 
-4049.7913977 
-4049.59748689 
-4050.73363079 
-4051.56917015 
-4051.98989221 
-4052.16389495 
-4052.22463226 
-4052.24179499 
-4052.24492187 
-4052.24458297 
-4052.2438754 
-4052.24342246 
-4052.24321143 
-4052.2431639 
-4052.2432948 
-4052.24379616 
-4052.24514958 
-4052.24818293 
-4052.2535289 
-4052.25861102 
-4052.24689967 
-4052.15696463 
-4051.80718653 
-4050.74500704 
-4048.03020569 
-4042.26458988 
-4032.99531174 
-4031.46401269 
-4076.12322725 
-4116.88410497 
-3247.7326794 
-3232.78192319 
-3221.39911302 
-3226.52937004 
-3228.29074262 
-3228.3859621 
-3228.18233425 
-3228.02838642 
-3227.95081697 
-3227.9188925 
-3227.90782103 
-3227.90472357 
-3227.9041758 
-3227.90424879 
-3227.90438123 
-3227.90445804 
-3227.90446855 
-3227.90439105 
-3227.9041471 
-3227.90358687 
-3227.90258586 
-3227.90159029 
-3227.90357684 
-3227.91973502 
-3227.98339948 
-3228.17807847 
-3228.67560259 
-3229.70850223 
-3231.08283622 
-3229.82120262 
-3216.37282739 
-3223.89910659 
-3242.91797828 
-1781.69370596 
-1809.82048796 
-1846.8090023 
-1856.4586023 
-1856.65251311 
-1855.51636921 
-1854.68082985 
-1854.26010779 
-1854.08610505 
-1854.02536774 
-1854.00820501 
-1854.00507813 
-1854.00541703 
-1854.0061246 
-1854.00657754 
-1854.00678857 
-1854.0068361 
-1854.0067052 
-1854.00620384 
-1854.00485042 
-1854.00181707 
-1853.9964711 
-1853.99138898 
-1854.00310033 
-1854.09303537 
-1854.44281346 
-1855.50499296 
-1858.21979431 
-1863.98541012 
-1873.25468826 
-1874.78598731 
-1830.12677275 
-1789.36589503 
-901.644583186 
-962.676859042 
-1029.16497929 
-1034.13889795 
-1032.68525607 
-1031.12513449 
-1030.25910413 
-1029.87140949 
-1029.72450978 
-1029.67794019 
-1029.66677923 
-1029.66580014 
-1029.66676832 
-1029.66760263 
-1029.66805304 
-1029.66824816 
-1029.66829872 
-1029.66820683 
-1029.66780325 
-1029.6666179 
-1029.66371274 
-1029.65784281 
-1029.64940073 
-1029.64862497 
-1029.70159798 
-1029.95907193 
-1030.83122276 
-1033.27650279 
-1039.27593915 
-1051.89934204 
-1073.01654251 
-1003.57039542 
-921.412474976 
</DataArray>
</PointData>
<CellData>
</CellData>
<Points>
<DataArray type="Float64" Name="Points" NumberOfComponents="3" format="ascii">
0.0 -2.0 0.0
0.5 -2.0 0.0
1.0 -2.0 0.0
1.5 -2.0 0.0
2.0 -2.0 0.0
2.5 -2.0 0.0
3.0 -2.0 0.0
3.5 -2.0 0.0
4.0 -2.0 0.0
4.5 -2.0 0.0
5.0 -2.0 0.0
5.5 -2.0 0.0
6.0 -2.0 0.0
6.5 -2.0 0.0
7.0 -2.0 0.0
7.5 -2.0 0.0
8.0 -2.0 0.0
8.5 -2.0 0.0
9.0 -2.0 0.0
9.5 -2.0 0.0
10.0 -2.0 0.0
10.5 -2.0 0.0
11.0 -2.0 0.0
11.5 -2.0 0.0
12.0 -2.0 0.0
12.5 -2.0 0.0
13.0 -2.0 0.0
13.5 -2.0 0.0
14.0 -2.0 0.0
14.5 -2.0 0.0
15.0 -2.0 0.0
15.5 -2.0 0.0
16.0 -2.0 0.0
0.0 -1.5 0.0
0.5 -1.5 0.0
1.0 -1.5 0.0
1.5 -1.5 0.0
2.0 -1.5 0.0
2.5 -1.5 0.0
3.0 -1.5 0.0
3.5 -1.5 0.0
4.0 -1.5 0.0
4.5 -1.5 0.0
5.0 -1.5 0.0
5.5 -1.5 0.0
6.0 -1.5 0.0
6.5 -1.5 0.0
7.0 -1.5 0.0
7.5 -1.5 0.0
8.0 -1.5 0.0
8.5 -1.5 0.0
9.0 -1.5 0.0
9.5 -1.5 0.0
10.0 -1.5 0.0
10.5 -1.5 0.0
11.0 -1.5 0.0
11.5 -1.5 0.0
12.0 -1.5 0.0
12.5 -1.5 0.0
13.0 -1.5 0.0
13.5 -1.5 0.0
14.0 -1.5 0.0
14.5 -1.5 0.0
15.0 -1.5 0.0
15.5 -1.5 0.0
16.0 -1.5 0.0
0.0 -1.0 0.0
0.5 -1.0 0.0
1.0 -1.0 0.0
1.5 -1.0 0.0
2.0 -1.0 0.0
2.5 -1.0 0.0
3.0 -1.0 0.0
3.5 -1.0 0.0
4.0 -1.0 0.0
4.5 -1.0 0.0
5.0 -1.0 0.0
5.5 -1.0 0.0
6.0 -1.0 0.0
6.5 -1.0 0.0
7.0 -1.0 0.0
7.5 -1.0 0.0
8.0 -1.0 0.0
8.5 -1.0 0.0
9.0 -1.0 0.0
9.5 -1.0 0.0
10.0 -1.0 0.0
10.5 -1.0 0.0
11.0 -1.0 0.0
11.5 -1.0 0.0
12.0 -1.0 0.0
12.5 -1.0 0.0
13.0 -1.0 0.0
13.5 -1.0 0.0
14.0 -1.0 0.0
14.5 -1.0 0.0
15.0 -1.0 0.0
15.5 -1.0 0.0
16.0 -1.0 0.0
0.0 -0.5 0.0
0.5 -0.5 0.0
1.0 -0.5 0.0
1.5 -0.5 0.0
2.0 -0.5 0.0
2.5 -0.5 0.0
3.0 -0.5 0.0
3.5 -0.5 0.0
4.0 -0.5 0.0
4.5 -0.5 0.0
5.0 -0.5 0.0
5.5 -0.5 0.0
6.0 -0.5 0.0
6.5 -0.5 0.0
7.0 -0.5 0.0
7.5 -0.5 0.0
8.0 -0.5 0.0
8.5 -0.5 0.0
9.0 -0.5 0.0
9.5 -0.5 0.0
10.0 -0.5 0.0
10.5 -0.5 0.0
11.0 -0.5 0.0
11.5 -0.5 0.0
12.0 -0.5 0.0
12.5 -0.5 0.0
13.0 -0.5 0.0
13.5 -0.5 0.0
14.0 -0.5 0.0
14.5 -0.5 0.0
15.0 -0.5 0.0
15.5 -0.5 0.0
16.0 -0.5 0.0
0.0 0.0 0.0
0.5 0.0 0.0
1.0 0.0 0.0
1.5 0.0 0.0
2.0 0.0 0.0
2.5 0.0 0.0
3.0 0.0 0.0
3.5 0.0 0.0
4.0 0.0 0.0
4.5 0.0 0.0
5.0 0.0 0.0
5.5 0.0 0.0
6.0 0.0 0.0
6.5 0.0 0.0
7.0 0.0 0.0
7.5 0.0 0.0
8.0 0.0 0.0
8.5 0.0 0.0
9.0 0.0 0.0
9.5 0.0 0.0
10.0 0.0 0.0
10.5 0.0 0.0
11.0 0.0 0.0
11.5 0.0 0.0
12.0 0.0 0.0
12.5 0.0 0.0
13.0 0.0 0.0
13.5 0.0 0.0
14.0 0.0 0.0
14.5 0.0 0.0
15.0 0.0 0.0
15.5 0.0 0.0
16.0 0.0 0.0
0.0 0.5 0.0
0.5 0.5 0.0
1.0 0.5 0.0
1.5 0.5 0.0
2.0 0.5 0.0
2.5 0.5 0.0
3.0 0.5 0.0
3.5 0.5 0.0
4.0 0.5 0.0
4.5 0.5 0.0
5.0 0.5 0.0
5.5 0.5 0.0
6.0 0.5 0.0
6.5 0.5 0.0
7.0 0.5 0.0
7.5 0.5 0.0
8.0 0.5 0.0
8.5 0.5 0.0
9.0 0.5 0.0
9.5 0.5 0.0
10.0 0.5 0.0
10.5 0.5 0.0
11.0 0.5 0.0
11.5 0.5 0.0
12.0 0.5 0.0
12.5 0.5 0.0
13.0 0.5 0.0
13.5 0.5 0.0
14.0 0.5 0.0
14.5 0.5 0.0
15.0 0.5 0.0
15.5 0.5 0.0
16.0 0.5 0.0
0.0 1.0 0.0
0.5 1.0 0.0
1.0 1.0 0.0
1.5 1.0 0.0
2.0 1.0 0.0
2.5 1.0 0.0
3.0 1.0 0.0
3.5 1.0 0.0
4.0 1.0 0.0
4.5 1.0 0.0
5.0 1.0 0.0
5.5 1.0 0.0
6.0 1.0 0.0
6.5 1.0 0.0
7.0 1.0 0.0
7.5 1.0 0.0
8.0 1.0 0.0
8.5 1.0 0.0
9.0 1.0 0.0
9.5 1.0 0.0
10.0 1.0 0.0
10.5 1.0 0.0
11.0 1.0 0.0
11.5 1.0 0.0
12.0 1.0 0.0
12.5 1.0 0.0
13.0 1.0 0.0
13.5 1.0 0.0
14.0 1.0 0.0
14.5 1.0 0.0
15.0 1.0 0.0
15.5 1.0 0.0
16.0 1.0 0.0
0.0 1.5 0.0
0.5 1.5 0.0
1.0 1.5 0.0
1.5 1.5 0.0
2.0 1.5 0.0
2.5 1.5 0.0
3.0 1.5 0.0
3.5 1.5 0.0
4.0 1.5 0.0
4.5 1.5 0.0
5.0 1.5 0.0
5.5 1.5 0.0
6.0 1.5 0.0
6.5 1.5 0.0
7.0 1.5 0.0
7.5 1.5 0.0
8.0 1.5 0.0
8.5 1.5 0.0
9.0 1.5 0.0
9.5 1.5 0.0
10.0 1.5 0.0
10.5 1.5 0.0
11.0 1.5 0.0
11.5 1.5 0.0
12.0 1.5 0.0
12.5 1.5 0.0
13.0 1.5 0.0
13.5 1.5 0.0
14.0 1.5 0.0
14.5 1.5 0.0
15.0 1.5 0.0
15.5 1.5 0.0
16.0 1.5 0.0
0.0 2.0 0.0
0.5 2.0 0.0
1.0 2.0 0.0
1.5 2.0 0.0
2.0 2.0 0.0
2.5 2.0 0.0
3.0 2.0 0.0
3.5 2.0 0.0
4.0 2.0 0.0
4.5 2.0 0.0
5.0 2.0 0.0
5.5 2.0 0.0
6.0 2.0 0.0
6.5 2.0 0.0
7.0 2.0 0.0
7.5 2.0 0.0
8.0 2.0 0.0
8.5 2.0 0.0
9.0 2.0 0.0
9.5 2.0 0.0
10.0 2.0 0.0
10.5 2.0 0.0
11.0 2.0 0.0
11.5 2.0 0.0
12.0 2.0 0.0
12.5 2.0 0.0
13.0 2.0 0.0
13.5 2.0 0.0
14.0 2.0 0.0
14.5 2.0 0.0
15.0 2.0 0.0
15.5 2.0 0.0
16.0 2.0 0.0
</DataArray>
</Points>
<Cells>
<DataArray type="Int64" Name="connectivity" format="ascii">
0 1 34 33 
1 2 35 34 
2 3 36 35 
3 4 37 36 
4 5 38 37 
5 6 39 38 
6 7 40 39 
7 8 41 40 
8 9 42 41 
9 10 43 42 
10 11 44 43 
11 12 45 44 
12 13 46 45 
13 14 47 46 
14 15 48 47 
15 16 49 48 
16 17 50 49 
17 18 51 50 
18 19 52 51 
19 20 53 52 
20 21 54 53 
21 22 55 54 
22 23 56 55 
23 24 57 56 
24 25 58 57 
25 26 59 58 
26 27 60 59 
27 28 61 60 
28 29 62 61 
29 30 63 62 
30 31 64 63 
31 32 65 64 
33 34 67 66 
34 35 68 67 
35 36 69 68 
36 37 70 69 
37 38 71 70 