<?xml version="1.0"?>
<VTKFile type="UnstructuredGrid" version="0.1" byte_order="LittleEndian" compressor="vtkZLibDataCompressor">
<UnstructuredGrid>
<Piece NumberOfPoints="297" NumberOfCells="256">
<PointData>
<DataArray type="Float64" Name="displacement" NumberOfComponents="3" format="ascii" >
0.0 -0.009  0.
-0.0144046496369 -0.0121057550132  0.
-0.0283794019221 -0.0188565309865  0.
-0.041895629695 -0.0290547251705  0.
-0.0549506474791 -0.0425792910655  0.
-0.0675459515924 -0.0593108667296  0.
-0.0796824810167 -0.0791339650502  0.
-0.0913607357338 -0.101933798705  0.
-0.102580923473 -0.127595857668  0.
-0.113343119865 -0.156005673426  0.
-0.123647347308 -0.187048775053  0.
-0.133493610501 -0.220610681973  0.
-0.142881909425 -0.256576907432  0.
-0.151812243372 -0.294832961675  0.
-0.160284611838 -0.335264353746  0.
-0.168299014573 -0.37775659228  0.
-0.175855451469 -0.422195185795  0.
-0.182953922498 -0.468465642771  0.
-0.189594427701 -0.516453471652  0.
-0.195776967279 -0.566044180838  0.
-0.201501541854 -0.617123278782  0.
-0.206768153026 -0.669576274488  0.
-0.21157680423 -0.723288679254  0.
-0.2159275011 -0.778146011639  0.
-0.219820247343 -0.834033809188  0.
-0.223255023019 -0.890837652028  0.
-0.226231707197 -0.948443190909  0.
-0.22874986299 -1.00673615521  0.
-0.230808175995 -1.06560203586  0.
-0.232403355269 -1.12492552158  0.
-0.233527044271 -1.1845833183  0.
-0.234166277696 -1.24444718773  0.
-0.234326599292 -1.304149578  0.
0.000943359375 -0.0050625  0.
-0.00990149733581 -0.00838003829473  0.
-0.0203730991919 -0.0152477355822  0.
-0.0305040185235 -0.0255682945256  0.
-0.0402926492179 -0.0392131331165  0.
-0.0497381634199 -0.0560650335543  0.
-0.0588402631893 -0.0760083560233  0.
-0.0675988841254 -0.0989284050735  0.
-0.0760140195336 -0.124710676442  0.
-0.0840856733833 -0.153240706092  0.
-0.0918138494269 -0.184404022712  0.
-0.0991985497157 -0.218086145263  0.
-0.106239775149 -0.254172586627  0.
-0.112937526058 -0.292548856877  0.
-0.119291802544 -0.333100464985  0.
-0.125302604632 -0.375712919564  0.
-0.130969932324 -0.420271729126  0.
-0.136293785626 -0.466662402153  0.
-0.141274164548 -0.514770447091  0.
-0.145911069112 -0.564481372338  0.
-0.150204499329 -0.615680686311  0.
-0.154154455097 -0.668253897878  0.
-0.157760935863 -0.722086517915  0.
-0.161023939676 -0.777064063848  0.
-0.163943460959 -0.833072070934  0.
-0.166519486176 -0.889996114623  0.
-0.168751988387 -0.947721846081  0.
-0.170640930761 -1.00613498578  0.
-0.172186334868 -1.06512119128  0.
-0.173388729164 -1.12456462454  0.
-0.1742507283 -1.18434643339  0.
-0.174784938721 -1.24431642458  0.
-0.174946681574 -1.30437348785  0.
0.001078125 -0.00225  0.
-0.00615740927436 -0.00569487012286  0.
-0.0131474323307 -0.0126701286135  0.
-0.019900464755 -0.0230785709992  0.
-0.0264246216212 -0.0368095527385  0.
-0.0327206178105 -0.0537469960438  0.
-0.0387882138043 -0.0737759645074  0.
-0.044627111918 -0.0967817633152  0.
-0.0502371428593 -0.122649853642  0.
-0.0556182305281 -0.151265734059  0.
-0.0607703461563 -0.182514914084  0.
-0.0656934806705 -0.216282904196  0.
-0.0703876319182 -0.252455214199  0.
-0.074852799725 -0.29091735323  0.
-0.0790889842879 -0.331554830062  0.
-0.0830961857726 -0.374253153303  0.
-0.0868744042633 -0.418897831503  0.
-0.0904236397758 -0.465374373188  0.
-0.0937438922442 -0.513568286877  0.
-0.09683516144 -0.563365081109  0.
-0.0996974467919 -0.614650264523  0.
-0.102330747137 -0.667309346105  0.
-0.104735060782 -0.721227835838  0.
-0.10691038747 -0.776291246112  0.
-0.108856737356 -0.832385093995  0.
-0.110574160567 -0.889394903384  0.
-0.112062827782 -0.947206195145  0.
-0.113323216015 -1.00570444778  0.
-0.1143564656 -1.06477482933  0.
-0.115164724487 -1.12430177256  0.
-0.115751051842 -1.18416546404  0.
-0.116105477371 -1.24425199489  0.
-0.116209838102 -1.30448999903  0.
0.000673828125 -0.0005625  0.
-0.00294548534265 -0.00407845634141  0.
-0.00644205125522 -0.011119269531  0.
-0.00981961439091 -0.0215847065135  0.
-0.0130813716718 -0.0353677847649  0.
-0.0162290013369 -0.0523564985881  0.
-0.0192625851892 -0.072436690535  0.
-0.022181939052 -0.0954938457979  0.
-0.0249869190899 -0.121413383444  0.
-0.0276774519971 -0.150080757513  0.
-0.0302535073399 -0.181381450128  0.
-0.032715074471 -0.21520095943  0.
-0.0350621503738 -0.25142479047  0.
-0.0372947344941 -0.289938450868  0.
-0.0394128268887 -0.330627449024  0.
-0.0414164276792 -0.373377293515  0.
-0.0433055369374 -0.418073492933  0.
-0.0450801546728 -0.464601555867  0.
-0.0467402808109 -0.512846990945  0.
-0.0482859151202 -0.562695306896  0.
-0.0497170570727 -0.614032012621  0.
-0.0510337057397 -0.666742617098  0.
-0.0522358602506 -0.720712628528  0.
-0.0533235227022 -0.775827550835  0.
-0.0542967089386 -0.831972872959  0.
-0.0551554803595 -0.889034040414  0.
-0.0559000228145 -0.946896396413  0.
-0.0565308068709 -1.00544506893  0.
-0.0570487921217 -1.06456494245  0.
-0.0574552924496 -1.12414078567  0.
-0.0577491322362 -1.18406033503  0.
-0.0579246765347 -1.24422304757  0.
-0.0579765329378 -1.30454670913  0.
0.0 0.0  0.
8.01471852151e-17 -0.00353904010574  0.
1.65841647486e-16 -0.0106016527561  0.
2.560721958e-16 -0.021086488566  0.
3.48096620434e-16 -0.0348872776819  0.
4.40638158017e-16 -0.0518930609566  0.
5.33228292456e-16 -0.0719903044862  0.
6.26180331411e-16 -0.0950645563401  0.
7.19951527045e-16 -0.121001232898  0.
8.13650455125e-16 -0.14968576721  0.
9.09342561295e-16 -0.181003629234  0.
1.00773401007e-15 -0.214840311194  0.
1.09799397717e-15 -0.251081315845  0.
1.18929581917e-15 -0.289612150042  0.
1.27391582102e-15 -0.330318321992  0.
1.36817635223e-15 -0.373085340245  0.
1.4445893794e-15 -0.417798713411  0.
1.53302284497e-15 -0.464343950109  0.
1.62079565712e-15 -0.512606559017  0.
1.68881158434e-15 -0.562472048951  0.
1.74614710624e-15 -0.613825928917  0.
1.8362043498e-15 -0.666553707837  0.
1.94550372844e-15 -0.720540892928  0.
2.02710261233e-15 -0.775672983842  0.
2.09619161786e-15 -0.831835455552  0.
2.14646962206e-15 -0.888913717009  0.
2.20699072102e-15 -0.946793024907  0.
2.29109099575e-15 -1.00535837609  0.
2.31102246414e-15 -1.06449448828  0.
2.32511094098e-15 -1.12408696942  0.
2.32538497088e-15 -1.18402634784  0.
2.36693396731e-15 -1.24421420622  0.
2.38089803094e-15 -1.30456411  0.
-0.000673828125 -0.0005625  0.
0.00294548534265 -0.00407845634141  0.
0.00644205125522 -0.011119269531  0.
0.00981961439091 -0.0215847065135  0.
0.0130813716718 -0.0353677847649  0.
0.0162290013369 -0.0523564985881  0.
0.0192625851892 -0.072436690535  0.
0.022181939052 -0.0954938457979  0.
0.0249869190899 -0.121413383444  0.
0.0276774519971 -0.150080757513  0.
0.0302535073399 -0.181381450128  0.
0.032715074471 -0.21520095943  0.
0.0350621503738 -0.25142479047  0.
0.0372947344941 -0.289938450868  0.
0.0394128268887 -0.330627449024  0.
0.0414164276792 -0.373377293515  0.
0.0433055369374 -0.418073492933  0.
0.0450801546728 -0.464601555867  0.
0.0467402808109 -0.512846990945  0.
0.0482859151202 -0.562695306896  0.
0.0497170570727 -0.614032012621  0.
0.0510337057397 -0.666742617098  0.
0.0522358602506 -0.720712628528  0.
0.0533235227022 -0.775827550835  0.
0.0542967089386 -0.831972872959  0.
0.0551554803595 -0.889034040414  0.
0.0559000228145 -0.946896396413  0.
0.0565308068709 -1.00544506893  0.
0.0570487921217 -1.06456494245  0.
0.0574552924496 -1.12414078567  0.
0.0577491322362 -1.18406033503  0.
0.0579246765347 -1.24422304757  0.
0.0579765329378 -1.30454670913  0.
-0.001078125 -0.00225  0.
0.00615740927436 -0.00569487012286  0.
0.0131474323307 -0.0126701286135  0.
0.019900464755 -0.0230785709992  0.
0.0264246216212 -0.0368095527385  0.
0.0327206178105 -0.0537469960438  0.
0.0387882138043 -0.0737759645074  0.
0.044627111918 -0.0967817633152  0.
0.0502371428593 -0.122649853642  0.
0.0556182305281 -0.151265734059  0.
0.0607703461563 -0.182514914084  0.
0.0656934806705 -0.216282904196  0.
0.0703876319182 -0.252455214199  0.
0.074852799725 -0.29091735323  0.
0.0790889842879 -0.331554830062  0.
0.0830961857726 -0.374253153303  0.
0.0868744042633 -0.418897831503  0.
0.0904236397758 -0.465374373188  0.
0.0937438922442 -0.513568286877  0.
0.09683516144 -0.563365081109  0.
0.0996974467919 -0.614650264523  0.
0.102330747137 -0.667309346105  0.
0.104735060782 -0.721227835838  0.
0.10691038747 -0.776291246112  0.
0.108856737356 -0.832385093995  0.
0.110574160567 -0.889394903384  0.
0.112062827782 -0.947206195145  0.
0.113323216015 -1.00570444778  0.
0.1143564656 -1.06477482933  0.
0.115164724487 -1.12430177256  0.
0.115751051842 -1.18416546404  0.
0.116105477371 -1.24425199489  0.
0.116209838102 -1.30448999903  0.
-0.000943359375 -0.0050625  0.
0.00990149733581 -0.00838003829473  0.
0.0203730991919 -0.0152477355822  0.
0.0305040185235 -0.0255682945256  0.
0.0402926492179 -0.0392131331165  0.
0.0497381634199 -0.0560650335543  0.
0.0588402631893 -0.0760083560233  0.
0.0675988841255 -0.0989284050735  0.
0.0760140195336 -0.124710676442  0.
0.0840856733833 -0.153240706092  0.
0.0918138494269 -0.184404022712  0.
0.0991985497157 -0.218086145263  0.
0.106239775149 -0.254172586627  0.
0.112937526058 -0.292548856877  0.
0.119291802544 -0.333100464985  0.
0.125302604632 -0.375712919564  0.
0.130969932324 -0.420271729126  0.
0.136293785626 -0.466662402153  0.
0.141274164548 -0.514770447091  0.
0.145911069112 -0.564481372338  0.
0.150204499329 -0.615680686311  0.
0.154154455097 -0.668253897878  0.
0.157760935863 -0.722086517915  0.
0.161023939676 -0.777064063848  0.
0.163943460959 -0.833072070934  0.
0.166519486176 -0.889996114623  0.
0.168751988387 -0.947721846081  0.
0.170640930761 -1.00613498578  0.
0.172186334868 -1.06512119128  0.
0.173388729164 -1.12456462454  0.
0.1742507283 -1.18434643339  0.
0.174784938721 -1.24431642458  0.
0.174946681574 -1.30437348785  0.
0.0 -0.009  0.
0.0144046496369 -0.0121057550132  0.
0.0283794019221 -0.0188565309865  0.
0.041895629695 -0.0290547251705  0.
0.0549506474791 -0.0425792910655  0.
0.0675459515924 -0.0593108667296  0.
0.0796824810167 -0.0791339650502  0.
0.0913607357338 -0.101933798705  0.
0.102580923473 -0.127595857668  0.
0.113343119865 -0.156005673426  0.
0.123647347308 -0.187048775053  0.
0.133493610501 -0.220610681973  0.
0.142881909425 -0.256576907432  0.
0.151812243372 -0.294832961675  0.
0.160284611838 -0.335264353746  0.
0.168299014573 -0.37775659228  0.
0.175855451469 -0.422195185795  0.
0.182953922498 -0.468465642771  0.
0.189594427701 -0.516453471652  0.
0.195776967279 -0.566044180838  0.
0.201501541854 -0.617123278782  0.
0.206768153026 -0.669576274488  0.
0.21157680423 -0.723288679254  0.
0.2159275011 -0.778146011639  0.
0.219820247343 -0.834033809188  0.
0.223255023019 -0.890837652028  0.
0.226231707197 -0.948443190909  0.
0.22874986299 -1.00673615521  0.
0.230808175995 -1.06560203586  0.
0.232403355269 -1.12492552158  0.
0.233527044271 -1.1845833183  0.
0.234166277696 -1.24444718773  0.
0.234326599292 -1.304149578  0.
</DataArray>
<DataArray type="Float64" Name="Nodal_sigma_xx" NumberOfComponents="1" format="ascii" >
-25220.3750904 
-24833.2647454 
-24046.4724144 
-23245.3028516 
-22442.3587243 
-21639.7898413 
-20837.7864774 
-20036.112937 
-19234.5914086 
-18433.1281638 
-17631.6837089 
-16830.2438843 
-16028.8045484 
-15227.3648682 
-14425.9248704 
-13624.4846987 
-12823.0444599 
-12021.6042393 
-11220.1641736 
-10418.7245742 
-9617.2861073 
-8815.84988999 
-8014.41677457 
-7212.98332892 
-6411.52742234 
-5609.96698582 
-4808.05802656 
-4005.1960427 
-3200.09010691 
-2390.88166898 
-1576.64998895 
-776.460379199 
-384.62468372 
-21638.2592669 
-21294.0727309 
-20607.4518604 
-19921.7033479 
-19234.8665638 
-18547.8048328 
-17860.7548109 
-17173.7531854 
-16486.781982 
-15799.8252199 
-15112.8740984 
-14425.924834 
-13738.9760448 
-13052.0273165 
-12365.0785604 
-11678.1297767 
-10991.1809814 
-10304.2321948 
-9617.28345056 
-8930.33481221 
-8243.38638021 
-7556.43821432 
-6869.48992911 
-6182.53928104 
-5495.57820056 
-4808.58314895 
-4121.4973373 
-3434.20726087 
-2746.60349014 
-2058.92135531 
-1373.54376688 
-689.533559448 
-347.10796144 
-14447.672605 
-14207.132863 
-13736.2996091 
-13277.7340372 
-12821.1516618 
-12364.2271219 
-11906.7909533 
-11449.0453966 
-10991.1569418 
-10533.2131636 
-10075.2514332 
-9617.2852081 
-9159.31846906 
-8701.35203543 
-8243.38589581 
-7785.41991881 
-7327.45400477 
-6869.48807279 
-6411.52199343 
-5953.55547323 
-5495.58788957 
-5037.61821443 
-4579.64572416 
-4121.67387816 
-3663.72401091 
-3205.87454315 
-2748.35573443 
-2291.73949552 
-1837.20464689 
-1386.51059232 
-939.636163087 
-481.054165317 
-245.205491193 
-7226.60011237 
-7106.66904496 
-6869.74019991 
-6638.28444764 
-6409.82325754 
-6181.66968198 
-5953.19530389 
-5724.44737409 
-5495.55491936 
-5266.60110131 
-5037.62533638 
-4808.64315031 
-4579.6596789 
-4350.67625258 
-4121.69304996 
-3892.70999709 
-3663.72700392 
-3434.74398228 
-3205.76078905 
-2976.77712537 
-2747.79242988 
-2518.80599738 
-2289.81822804 
-2060.83576434 
-1831.88756927 
-1603.06696382 
-1374.62332677 
-1147.10989944 
-921.43202047 
-697.952586172 
-472.602688705 
-239.39914485 
-120.313310812 
1.73031367012e-10 
1.76328285306e-10 
1.82012627192e-10 
1.85082171811e-10 
1.86219040188e-10 
1.88038029592e-10 
1.88038029592e-10 
1.86787474377e-10 
1.87242221728e-10 
1.84741111298e-10 
1.85650605999e-10 
1.86901161214e-10 
1.79397829925e-10 
1.76100911631e-10 
1.82467374543e-10 
1.79909420694e-10 
1.65698565979e-10 
1.41483269545e-10 
1.29546151584e-10 
1.24657617562e-10 
1.12720499601e-10 
1.35514710564e-10 
1.51601398102e-10 
1.42676981341e-10 
1.48361323227e-10 
1.38271616379e-10 
1.29460886455e-10 
9.85096448858e-11 
5.87760951021e-11 
7.48912043491e-11 
9.18802811611e-11 
8.55902015928e-11 
7.96802623881e-11 
7226.60011237 
7106.66904496 
6869.74019991 
6638.28444764 
6409.82325754 
6181.66968198 
5953.19530389 
5724.44737409 
5495.55491936 
5266.60110131 
5037.62533638 
4808.64315031 
4579.6596789 
4350.67625258 
4121.69304996 
3892.70999709 
3663.72700392 
3434.74398228 
3205.76078905 
2976.77712537 
2747.79242988 
2518.80599738 
2289.81822804 
2060.83576434 
1831.88756927 
1603.06696382 
1374.62332677 
1147.10989944 
921.43202047 
697.952586172 
472.602688705 
239.39914485 
120.313310812 
14447.672605 
14207.132863 
13736.2996091 
13277.7340372 
12821.1516618 
12364.2271219 
11906.7909533 
11449.0453966 
10991.1569418 
10533.2131636 
10075.2514332 
9617.2852081 
9159.31846906 
8701.35203543 
8243.38589582 
7785.41991881 
7327.45400477 
6869.48807279 
6411.52199343 
5953.55547323 
5495.58788957 
5037.61821443 
4579.64572416 
4121.67387816 
3663.72401091 
3205.87454315 
2748.35573443 
2291.73949552 
1837.20464689 
1386.51059232 
939.636163087 
481.054165317 
245.205491193 
21638.2592669 
21294.0727309 
20607.4518604 
19921.7033479 
19234.8665638 
18547.8048328 
17860.7548109 
17173.7531854 
16486.781982 
15799.8252199 
15112.8740984 
14425.924834 
13738.9760448 
13052.0273165 
12365.0785604 
11678.1297767 
10991.1809814 
10304.2321948 
9617.28345056 
8930.33481221 
8243.38638021 
7556.43821432 
6869.48992911 
6182.53928104 
5495.57820056 
4808.58314895 
4121.4973373 
3434.20726087 
2746.60349014 
2058.92135531 
1373.54376688 
689.533559448 
347.10796144 
25220.3750904 
24833.2647454 
24046.4724144 
23245.3028516 
22442.3587243 
21639.7898413 
20837.7864774 
20036.112937 
19234.5914086 
18433.1281638 
17631.6837089 
16830.2438843 
16028.8045484 
15227.3648682 
14425.9248704 
13624.4846987 
12823.0444599 
12021.6042393 
11220.1641736 
10418.7245742 
9617.2861073 
8815.84988999 
8014.41677457 
7212.98332892 
6411.52742234 
5609.96698582 
4808.05802656 
4005.1960427 
3200.09010691 
2390.88166898 
1576.64998895 
776.460379199 
384.62468372 
</DataArray>
<DataArray type="Float64" Name="Nodal_sigma_yy" NumberOfComponents="1" format="ascii" >
97.1041913528 
48.8849969926 
0.92736168852 
0.316466090141 
-0.41775813374 
-0.220289043005 
-0.113512863085 
-0.0451230600047 
-0.0157132485494 
-0.00433082671611 
-0.000749827245045 
0.00011673037875 
0.000194009335928 
0.000120821511473 
5.72823066705e-05 
2.15554723582e-05 
-1.94051017388e-06 
-3.87863199194e-05 
-0.000131679721221 
-0.000355447775064 
-0.000805873720083 
-0.00145228477425 
-0.0014933999006 
0.0025878730944 
0.0226243004977 
0.0888501693997 
0.280838814428 
0.705322234511 
1.85078069613 
2.49728341905 
9.72000957354 
-95.6874402566 
-208.534117788 
88.9646650811 
51.3212191337 
7.72539378807 
0.60125625658 
-0.584591393569 
-0.471389476433 
-0.249652939093 
-0.107118518414 
-0.0388923312154 
-0.0116336240858 
-0.00245913595256 
-1.13433592333e-05 
0.000358622140084 
0.00025696241795 
0.000129379994917 
4.92602809459e-05 
-8.41704570576e-06 
-9.97052104594e-05 
-0.000319181538373 
-0.000820428603788 
-0.00175664590461 
-0.00285431571029 
-0.00179332756449 
0.0106311721942 
0.0626785717784 
0.227116395007 
0.662699948138 
1.6421115033 
3.48633146374 
5.46330104031 
1.5994639582 
-89.9053425365 
-176.746486251 
66.4891951452 
45.7676305649 
14.63563423 
1.92739557336 
-0.640578218241 
-0.747193516064 
-0.430981381513 
-0.194359645643 
-0.073620023176 
-0.0232641749166 
-0.00553498175717 
-0.00046066540321 
0.000498301391445 
0.000423372445908 
0.000226029607177 
8.69879023071e-05 
-2.11927075497e-05 
-0.000193659909712 
-0.000592621151128 
-0.00146179338219 
-0.00296624497682 
-0.0043050395216 
-0.000575473305048 
0.0261837605782 
0.128590004727 
0.436652336762 
1.21587854953 
2.86120118772 
5.40195010433 
6.55305158297 
-9.53770247376 
-69.4084732281 
-113.483777076 
34.9349748535 
25.5332594335 
10.2939813164 
2.24361080619 
-0.305068854207 
-0.549591530366 
-0.343064999576 
-0.160533299262 
-0.0626474750216 
-0.0205069616142 
-0.0052128385924 
-0.000642933214039 
0.000320904419311 
0.000324265976069 
0.000181561390029 
7.04493067971e-05 
-2.10392076951e-05 
-0.000167613034677 
-0.000497697908681 
-0.0011918361443 
-0.00231914033196 
-0.00303618517662 
0.0011209258355 
0.0257439724597 
0.115112128093 
0.375268556577 
1.01263628799 
2.2806953596 
3.95962375801 
2.88010546438 
-9.07475085026 
-36.6740974879 
-54.2551419048 
4.14388523495e-11 
3.31397131959e-11 
1.98951966013e-11 
1.02033936855e-11 
2.13162820728e-12 
6.1675109464e-12 
8.77520278664e-12 
5.54223333893e-13 
-1.08357767203e-12 
-3.58468810191e-12 
-6.72883970765e-12 
4.09983158534e-12 
-1.67688085639e-12 
-9.59943236012e-12 
1.31379351842e-11 
4.00603994422e-11 
-5.84066128795e-12 
-9.6328278687e-11 
-9.98738869384e-11 
-8.74891270541e-11 
-1.60463642374e-10 
-1.81385573228e-10 
-9.33120247737e-11 
1.14752651825e-12 
1.00033759054e-10 
6.92423895998e-11 
-1.66835434356e-11 
1.81366033303e-12 
7.31565918954e-11 
1.89007032247e-10 
1.38586031539e-10 
1.08942188604e-10 
1.90437887682e-10 
-34.9349748534 
-25.5332594335 
-10.2939813163 
-2.24361080617 
0.305068854213 
0.549591530369 
0.343064999581 
0.160533299257 
0.0626474749978 
0.020506961582 
0.00521283857416 
0.000642933229308 
-0.000320904418629 
-0.000324266016904 
-0.000181561424299 
-7.04493539629e-05 
2.10390988826e-05 
0.000167612878521 
0.000497697742784 
0.0011918359954 
0.00231914016599 
0.00303618504472 
-0.00112092584909 
-0.025743972426 
-0.115112128041 
-0.375268556529 
-1.012636288 
-2.28069535963 
-3.95962375798 
-2.88010546418 
9.07475085062 
36.6740974882 
54.2551419051 
-66.4891951451 
-45.7676305649 
-14.63563423 
-1.92739557335 
0.640578218242 
0.74719351606 
0.430981381512 
0.194359645645 
0.0736200231626 
0.0232641748908 
0.00553498174372 
0.000460665383628 
-0.000498301431037 
-0.000423372515627 
-0.000226029743374 
-8.69881078245e-05 
2.11925238602e-05 
0.000193659773942 
0.000592620972782 
0.00146179321192 
0.00296624496525 
0.00430503966203 
0.000575473426522 
-0.0261837605422 
-0.128590004742 
-0.436652336808 
-1.21587854964 
-2.86120118787 
-5.4019501044 
-6.55305158291 
9.537702474 
69.4084732282 
113.483777076 
-88.964665081 
-51.3212191336 
-7.72539378805 
-0.601256256577 
0.584591393568 
0.471389476428 
0.249652939074 
0.107118518402 
0.0388923312347 
0.011633624123 
0.00245913597882 
1.13433262072e-05 
-0.000358622212389 
-0.000256962510207 
-0.000129380107467 
-4.92603911084e-05 
8.41697800524e-06 
9.97051611762e-05 
0.000319181425994 
0.00082042851858 
0.00175664597484 
0.00285431580824 
0.00179332754763 
-0.0106311722822 
-0.0626785718167 
-0.22711639505 
-0.662699948314 
-1.64211150356 
-3.48633146396 
-5.46330104039 
-1.59946395829 
89.9053425364 
176.746486251 
-97.1041913527 
-48.8849969926 
-0.927361688513 
-0.31646609014 
0.417758133741 
0.220289042998 
0.113512863041 
0.0451230599635 
0.0157132485695 
0.00433082678501 
0.000749827301433 
-0.000116730383297 
-0.000194009396637 
-0.000120821619021 
-5.72823541916e-05 
-2.15554561009e-05 
1.94053620817e-06 
3.87863732385e-05 
0.000131679721108 
0.000355447822358 
0.00080587387265 
0.00145228478823 
0.00149339978339 
-0.00258787327732 
-0.0226243006389 
-0.0888501694372 
-0.280838814551 
-0.705322234809 
-1.85078069649 
-2.4972834193 
-9.72000957373 
95.6874402567 
208.534117788 
</DataArray>
<DataArray type="Float64" Name="Nodal_sigma_xy" NumberOfComponents="1" format="ascii" >
-375.685242993 
-401.115357934 
-428.818741372 
-430.89120748 
-430.28552336 
-429.635472703 
-429.274626721 
-429.113087285 
-429.051879076 
-429.03247508 
-429.027824678 
-429.027416723 
-429.027820133 
-429.028167762 
-429.028355432 
-429.028436732 
-429.028457801 
-429.028419512 
-429.028251356 
-429.02775746 
-429.026546974 
-429.024101169 
-429.020583638 
-429.020260405 
-429.04233249 
-429.149613303 
-429.513009484 
-430.531876162 
-433.031641312 
-438.291392518 
-447.090226046 
-418.154331427 
-383.921864574 
-742.372377484 
-754.091869984 
-769.503750959 
-773.524417625 
-773.605213795 
-773.131820503 
-772.783679105 
-772.608378245 
-772.535877105 
-772.510569891 
-772.503418755 
-772.502115887 
-772.502257094 
-772.502551916 
-772.502740642 
-772.50282857 
-772.502848373 
-772.502793833 
-772.502584931 
-772.50202101 
-772.500757112 
-772.498529626 
-772.496412076 
-772.501291806 
-772.538764738 
-772.68450561 
-773.127080401 
-774.258247629 
-776.660587549 
-780.522786774 
-781.160828047 
-762.552821978 
-745.569122928 
-1353.22194975 
-1346.992468 
-1342.24963043 
-1344.38723752 
-1345.12114276 
-1345.16081754 
-1345.0759726 
-1345.01182768 
-1344.97950707 
-1344.96620521 
-1344.9615921 
-1344.96030149 
-1344.96007325 
-1344.96010366 
-1344.96015885 
-1344.96019085 
-1344.96019523 
-1344.96016294 
-1344.96006129 
-1344.95982786 
-1344.95941077 
-1344.95899595 
-1344.95982368 
-1344.96655626 
-1344.99308312 
-1345.07419936 
-1345.28150108 
-1345.71187593 
-1346.28451509 
-1345.75883443 
-1340.15534474 
-1343.29129441 
-1351.21582428 
-1718.56512251 
-1706.84563001 
-1691.43374904 
-1687.41308237 
-1687.3322862 
-1687.8056795 
-1688.15382089 
-1688.32912175 
-1688.40162289 
-1688.42693011 
-1688.43408124 
-1688.43538411 
-1688.4352429 
-1688.43494808 
-1688.43475936 
-1688.43467143 
-1688.43465163 
-1688.43470617 
-1688.43491507 
-1688.43547899 
-1688.43674289 
-1688.43897037 
-1688.44108792 
-1688.43620819 
-1688.39873526 
-1688.25299439 
-1687.8104196 
-1686.67925237 
-1684.27691245 
-1680.41471323 
-1679.77667195 
-1698.38467802 
-1715.36837707 
-1839.7458575 
-1826.77470607 
-1808.55699777 
-1802.20931749 
-1801.34719112 
-1801.91789221 
-1802.44842807 
-1802.73825736 
-1802.86410678 
-1802.9101145 
-1802.92399113 
-1802.9269803 
-1802.92703336 
-1802.92662491 
-1802.92632687 
-1802.92618157 
-1802.92615174 
-1802.92625461 
-1802.92662606 
-1802.92758681 
-1802.92963147 
-1802.93290692 
-1802.934769 
-1802.92162708 
-1802.84650128 
-1802.57698797 
-1801.79898836 
-1799.91937198 
-1796.2743285 
-1792.06593863 
-1794.47408446 
-1817.13807975 
-1835.52148686 
-1718.56512251 
-1706.84563001 
-1691.43374904 
-1687.41308237 
-1687.3322862 
-1687.8056795 
-1688.15382089 
-1688.32912175 
-1688.40162289 
-1688.42693011 
-1688.43408124 
-1688.43538411 
-1688.4352429 
-1688.43494808 
-1688.43475936 
-1688.43467143 
-1688.43465163 
-1688.43470617 
-1688.43491507 
-1688.43547899 
-1688.43674289 
-1688.43897037 
-1688.44108792 
-1688.43620819 
-1688.39873526 
-1688.25299439 
-1687.8104196 
-1686.67925237 
-1684.27691245 
-1680.41471323 
-1679.77667195 
-1698.38467802 
-1715.36837707 
-1353.22194975 
-1346.992468 
-1342.24963043 
-1344.38723752 
-1345.12114276 
-1345.16081754 
-1345.0759726 
-1345.01182768 
-1344.97950707 
-1344.96620521 
-1344.9615921 
-1344.96030149 
-1344.96007325 
-1344.96010366 
-1344.96015885 
-1344.96019085 
-1344.96019523 
-1344.96016294 
-1344.96006129 
-1344.95982786 
-1344.95941077 
-1344.95899595 
-1344.95982368 
-1344.96655626 
-1344.99308312 
-1345.07419936 
-1345.28150108 
-1345.71187593 
-1346.28451509 
-1345.75883443 
-1340.15534474 
-1343.29129441 
-1351.21582428 
-742.372377484 
-754.091869984 
-769.503750959 
-773.524417625 
-773.605213795 
-773.131820503 
-772.783679105 
-772.608378245 
-772.535877105 
-772.510569891 
-772.503418755 
-772.502115887 
-772.502257094 
-772.502551916 
-772.502740642 
-772.50282857 
-772.502848373 
-772.502793833 
-772.502584931 
-772.50202101 
-772.500757112 
-772.498529626 
-772.496412076 
-772.501291806 
-772.538764738 
-772.68450561 
-773.127080401 
-774.258247629 
-776.660587549 
-780.522786774 
-781.160828047 
-762.552821978 
-745.569122928 
-375.685242993 
-401.115357934 
-428.818741372 
-430.89120748 
-430.28552336 
-429.635472703 
-429.274626721 
-429.113087285 
-429.051879076 
-429.03247508 
-429.027824678 
-429.027416723 
-429.027820133 
-429.028167762 
-429.028355432 
-429.028436732 
-429.028457801 
-429.028419512 
-429.028251356 
-429.02775746 
-429.026546974 
-429.024101169 
-429.020583638 
-429.020260405 
-429.04233249 
-429.149613303 
-429.513009484 
-430.531876162 
-433.031641312 
-438.291392519 
-447.090226046 
-418.154331427 
-383.921864574 
</DataArray>
</PointData>
<CellData>
</CellData>
<Points>
<DataArray type="Float64" Name="Points" NumberOfComponents="3" format="ascii">
0.0 -2.0 0.0
0.5 -2.0 0.0
1.0 -2.0 0.0
1.5 -2.0 0.0
2.0 -2.0 0.0
2.5 -2.0 0.0
3.0 -2.0 0.0
3.5 -2.0 0.0
4.0 -2.0 0.0
4.5 -2.0 0.0
5.0 -2.0 0.0
5.5 -2.0 0.0
6.0 -2.0 0.0
6.5 -2.0 0.0
7.0 -2.0 0.0
7.5 -2.0 0.0
8.0 -2.0 0.0
8.5 -2.0 0.0
9.0 -2.0 0.0
9.5 -2.0 0.0
10.0 -2.0 0.0
10.5 -2.0 0.0
11.0 -2.0 0.0
11.5 -2.0 0.0
12.0 -2.0 0.0
12.5 -2.0 0.0
13.0 -2.0 0.0
13.5 -2.0 0.0
14.0 -2.0 0.0
14.5 -2.0 0.0
15.0 -2.0 0.0
15.5 -2.0 0.0
16.0 -2.0 0.0
0.0 -1.5 0.0
0.5 -1.5 0.0
1.0 -1.5 0.0
1.5 -1.5 0.0
2.0 -1.5 0.0
2.5 -1.5 0.0
3.0 -1.5 0.0
3.5 -1.5 0.0
4.0 -1.5 0.0
4.5 -1.5 0.0
5.0 -1.5 0.0
5.5 -1.5 0.0
6.0 -1.5 0.0
6.5 -1.5 0.0
7.0 -1.5 0.0
7.5 -1.5 0.0
8.0 -1.5 0.0
8.5 -1.5 0.0
9.0 -1.5 0.0
9.5 -1.5 0.0
10.0 -1.5 0.0
10.5 -1.5 0.0
11.0 -1.5 0.0
11.5 -1.5 0.0
12.0 -1.5 0.0
12.5 -1.5 0.0
13.0 -1.5 0.0
13.5 -1.5 0.0
14.0 -1.5 0.0
14.5 -1.5 0.0
15.0 -1.5 0.0
15.5 -1.5 0.0
16.0 -1.5 0.0
0.0 -1.0 0.0
0.5 -1.0 0.0
1.0 -1.0 0.0
1.5 -1.0 0.0
2.0 -1.0 0.0
2.5 -1.0 0.0
3.0 -1.0 0.0
3.5 -1.0 0.0
4.0 -1.0 0.0
4.5 -1.0 0.0
5.0 -1.0 0.0
5.5 -1.0 0.0
6.0 -1.0 0.0
6.5 -1.0 0.0
7.0 -1.0 0.0
7.5 -1.0 0.0
8.0 -1.0 0.0
8.5 -1.0 0.0
9.0 -1.0 0.0
9.5 -1.0 0.0
10.0 -1.0 0.0
10.5 -1.0 0.0
11.0 -1.0 0.0
11.5 -1.0 0.0
12.0 -1.0 0.0
12.5 -1.0 0.0
13.0 -1.0 0.0
13.5 -1.0 0.0
14.0 -1.0 0.0
14.5 -1.0 0.0
15.0 -1.0 0.0
15.5 -1.0 0.0
16.0 -1.0 0.0
0.0 -0.5 0.0
0.5 -0.5 0.0
1.0 -0.5 0.0
1.5 -0.5 0.0
2.0 -0.5 0.0
2.5 -0.5 0.0
3.0 -0.5 0.0
3.5 -0.5 0.0
4.0 -0.5 0.0
4.5 -0.5 0.0
5.0 -0.5 0.0
5.5 -0.5 0.0
6.0 -0.5 0.0
6.5 -0.5 0.0
7.0 -0.5 0.0
7.5 -0.5 0.0
8.0 -0.5 0.0
8.5 -0.5 0.0
9.0 -0.5 0.0
9.5 -0.5 0.0
10.0 -0.5 0.0
10.5 -0.5 0.0
11.0 -0.5 0.0
11.5 -0.5 0.0
12.0 -0.5 0.0
12.5 -0.5 0.0
13.0 -0.5 0.0
13.5 -0.5 0.0
14.0 -0.5 0.0
14.5 -0.5 0.0
15.0 -0.5 0.0
15.5 -0.5 0.0
16.0 -0.5 0.0
0.0 0.0 0.0
0.5 0.0 0.0
1.0 0.0 0.0
1.5 0.0 0.0
2.0 0.0 0.0
2.5 0.0 0.0
3.0 0.0 0.0
3.5 0.0 0.0
4.0 0.0 0.0
4.5 0.0 0.0
5.0 0.0 0.0
5.5 0.0 0.0
6.0 0.0 0.0
6.5 0.0 0.0
7.0 0.0 0.0
7.5 0.0 0.0
8.0 0.0 0.0
8.5 0.0 0.0
9.0 0.0 0.0
9.5 0.0 0.0
10.0 0.0 0.0
10.5 0.0 0.0
11.0 0.0 0.0
11.5 0.0 0.0
12.0 0.0 0.0
12.5 0.0 0.0
13.0 0.0 0.0
13.5 0.0 0.0
14.0 0.0 0.0
14.5 0.0 0.0
15.0 0.0 0.0
15.5 0.0 0.0
16.0 0.0 0.0
0.0 0.5 0.0
0.5 0.5 0.0
1.0 0.5 0.0
1.5 0.5 0.0
2.0 0.5 0.0
2.5 0.5 0.0
3.0 0.5 0.0
3.5 0.5 0.0
4.0 0.5 0.0
4.5 0.5 0.0
5.0 0.5 0.0
5.5 0.5 0.0
6.0 0.5 0.0
6.5 0.5 0.0
7.0 0.5 0.0
7.5 0.5 0.0
8.0 0.5 0.0
8.5 0.5 0.0
9.0 0.5 0.0
9.5 0.5 0.0
10.0 0.5 0.0
10.5 0.5 0.0
11.0 0.5 0.0
11.5 0.5 0.0
12.0 0.5 0.0
12.5 0.5 0.0
13.0 0.5 0.0
13.5 0.5 0.0
14.0 0.5 0.0
14.5 0.5 0.0
15.0 0.5 0.0
15.5 0.5 0.0
16.0 0.5 0.0
0.0 1.0 0.0
0.5 1.0 0.0
1.0 1.0 0.0
1.5 1.0 0.0
2.0 1.0 0.0
2.5 1.0 0.0
3.0 1.0 0.0
3.5 1.0 0.0
4.0 1.0 0.0
4.5 1.0 0.0
5.0 1.0 0.0
5.5 1.0 0.0
6.0 1.0 0.0
6.5 1.0 0.0
7.0 1.0 0.0
7.5 1.0 0.0
8.0 1.0 0.0
8.5 1.0 0.0
9.0 1.0 0.0
9.5 1.0 0.0
10.0 1.0 0.0
10.5 1.0 0.0
11.0 1.0 0.0
11.5 1.0 0.0
12.0 1.0 0.0
12.5 1.0 0.0
13.0 1.0 0.0
13.5 1.0 0.0
14.0 1.0 0.0
14.5 1.0 0.0
15.0 1.0 0.0
15.5 1.0 0.0
16.0 1.0 0.0
0.0 1.5 0.0
0.5 1.5 0.0
1.0 1.5 0.0
1.5 1.5 0.0
2.0 1.5 0.0
2.5 1.5 0.0
3.0 1.5 0.0
3.5 1.5 0.0
4.0 1.5 0.0
4.5 1.5 0.0
5.0 1.5 0.0
5.5 1.5 0.0
6.0 1.5 0.0
6.5 1.5 0.0
7.0 1.5 0.0
7.5 1.5 0.0
8.0 1.5 0.0
8.5 1.5 0.0
9.0 1.5 0.0
9.5 1.5 0.0
10.0 1.5 0.0
10.5 1.5 0.0
11.0 1.5 0.0
11.5 1.5 0.0
12.0 1.5 0.0
12.5 1.5 0.0
13.0 1.5 0.0
13.5 1.5 0.0
14.0 1.5 0.0
14.5 1.5 0.0
15.0 1.5 0.0
15.5 1.5 0.0
16.0 1.5 0.0
0.0 2.0 0.0
0.5 2.0 0.0
1.0 2.0 0.0
1.5 2.0 0.0
2.0 2.0 0.0
2.5 2.0 0.0
3.0 2.0 0.0
3.5 2.0 0.0
4.0 2.0 0.0
4.5 2.0 0.0
5.0 2.0 0.0
5.5 2.0 0.0
6.0 2.0 0.0
6.5 2.0 0.0
7.0 2.0 0.0
7.5 2.0 0.0
8.0 2.0 0.0
8.5 2.0 0.0
9.0 2.0 0.0
9.5 2.0 0.0
10.0 2.0 0.0
10.5 2.0 0.0
11.0 2.0 0.0
11.5 2.0 0.0
12.0 2.0 0.0
12.5 2.0 0.0
13.0 2.0 0.0
13.5 2.0 0.0
14.0 2.0 0.0
14.5 2.0 0.0
15.0 2.0 0.0
15.5 2.0 0.0
16.0 2.0 0.0
</DataArray>
</Points>
<Cells>
<DataArray type="Int64" Name="connectivity" format="ascii">
0 1 34 33 
1 2 35 34 
2 3 36 35 
3 4 37 36 
4 5 38 37 
5 6 39 38 
6 7 40 39 
7 8 41 40 
8 9 42 41 
9 10 43 42 
10 11 44 43 