<?xml version="1.0"?>
<VTKFile type="UnstructuredGrid" version="0.1" byte_order="LittleEndian" compressor="vtkZLibDataCompressor">
<UnstructuredGrid>
<Piece NumberOfPoints="297" NumberOfCells="256">
<PointData>
<DataArray type="Float64" Name="displacement" NumberOfComponents="3" format="ascii" >
0.0 -0.0306  0.
-0.0489758087656 -0.0411595670449  0.
-0.0964899665353 -0.0641122053542  0.
-0.142445140963 -0.0987860655796  0.
-0.186832201429 -0.144769589623  0.
-0.229656235414 -0.201656946881  0.
-0.270920435457 -0.269055481171  0.
-0.310626501495 -0.346574915597  0.
-0.348775139807 -0.433825916073  0.
-0.385366607542 -0.53041928965  0.
-0.420400980848 -0.63596583518  0.
-0.453878275702 -0.750076318707  0.
-0.485798492046 -0.87236148527  0.
-0.516161627464 -1.0024320697  0.
-0.544967680251 -1.13989880274  0.
-0.572216649547 -1.28437241375  0.
-0.597908534994 -1.4354636317  0.
-0.622043336492 -1.59278318542  0.
-0.644621054183 -1.75594180362  0.
-0.665641688749 -1.92455021485  0.
-0.685105242305 -2.09821914786  0.
-0.703011720288 -2.27655933326  0.
-0.719361134381 -2.45918150946  0.
-0.734153503739 -2.64569643957  0.
-0.747388840968 -2.83571495124  0.
-0.759067078264 -3.0288480169  0.
-0.769187804471 -3.22470684909  0.
-0.777749534167 -3.42290292772  0.
-0.784747798384 -3.62304692193  0.
-0.790171407916 -3.82474677336  0.
-0.793991950522 -4.02758328223  0.
-0.796165344167 -4.23112043828  0.
-0.796710437593 -4.4341085652  0.
0.003207421875 -0.0172125  0.
-0.0336650909418 -0.0284921302021  0.
-0.0692685372526 -0.0518423009795  0.
-0.10371366298 -0.086932201387  0.
-0.136995007341 -0.133324652596  0.
-0.169109755628 -0.190621114085  0.
-0.200056894844 -0.258428410479  0.
-0.229836206027 -0.33635657725  0.
-0.258447666414 -0.424016299904  0.
-0.285891289503 -0.521018400711  0.
-0.312167088052 -0.626973677222  0.
-0.337275069034 -0.741492893895  0.
-0.361215235506 -0.864186794534  0.
-0.383987588596 -0.994666113382  0.
-0.405592128651 -1.13254158095  0.
-0.426028855749 -1.27742392652  0.
-0.445297769903 -1.42892387903  0.
-0.463398871127 -1.58665216732  0.
-0.480332159463 -1.75021952011  0.
-0.496097634983 -1.91923666595  0.
-0.51069529772 -2.09331433346  0.
-0.524125147329 -2.27206325279  0.
-0.536387181933 -2.45509416091  0.
-0.547481394898 -2.64201781709  0.
-0.557407767262 -2.83244504118  0.
-0.566166252999 -3.02598678972  0.
-0.573756760517 -3.22225427668  0.
-0.580179164587 -3.42085895165  0.
-0.585433538552 -3.62141205036  0.
-0.589521679158 -3.82351972344  0.
-0.592452476221 -4.02677787352  0.
-0.594268791652 -4.23067584359  0.
-0.59481871735 -4.43486985871  0.
0.003665625 -0.00765  0.
-0.0209351915328 -0.0193625584177  0.
-0.0447012699245 -0.043078437286  0.
-0.0676615801671 -0.0784671413973  0.
-0.089843713512 -0.125152479311  0.
-0.111250100556 -0.182739786549  0.
-0.131879926935 -0.250838279325  0.
-0.151732180521 -0.329057995272  0.
-0.170806285722 -0.417009502385  0.
-0.189101983796 -0.514303495801  0.
-0.206619176932 -0.620550707887  0.
-0.22335783428 -0.735361874266  0.
-0.239317948522 -0.858347728277  0.
-0.254499519065 -0.989119000983  0.
-0.268902546579 -1.12728642221  0.
-0.282527031627 -1.27246072123  0.
-0.295372974495 -1.42425262711  0.
-0.307440375238 -1.58227286884  0.
-0.31872923363 -1.74613217538  0.
-0.329239548896 -1.91544127577  0.
-0.338971319093 -2.08981089938  0.
-0.347924540267 -2.26885177676  0.
-0.35609920666 -2.45217464185  0.
-0.363495317397 -2.63939023678  0.
-0.370112907012 -2.83010931959  0.
-0.375952145927 -3.02394267151  0.
-0.381013614459 -3.22050106349  0.
-0.38529893445 -3.41939512245  0.
-0.38881198304 -3.62023441972  0.
-0.391560063258 -3.82262602669  0.
-0.393553576263 -4.02616257775  0.
-0.394758623062 -4.23045678263  0.
-0.395113449545 -4.43526599671  0.
0.002291015625 -0.0019125  0.
-0.010014650165 -0.0138667515608  0.
-0.0219029742677 -0.0378055164054  0.
-0.0333866889291 -0.073388002146  0.
-0.044476663684 -0.120250468201  0.
-0.0551786045456 -0.1780120952  0.
-0.0654927896434 -0.246284747819  0.
-0.0754185927767 -0.324679075713  0.
-0.0849555249058 -0.412805503711  0.
-0.0941033367903 -0.510274575543  0.
-0.102861924956 -0.616696930436  0.
-0.111231253202 -0.731683262063  0.
-0.119211311271 -0.8548442876  0.
-0.12680209728 -0.985790732951  0.
-0.134003611421 -1.12413332668  0.
-0.140815854109 -1.26948279795  0.
-0.147238825587 -1.42144987597  0.
-0.153272525887 -1.57964528995  0.
-0.158916954757 -1.74367976921  0.
-0.164172111409 -1.91316404345  0.
-0.169037994047 -2.08770884291  0.
-0.173514599515 -2.26692489813  0.
-0.177601924852 -2.450422937  0.
-0.181299977188 -2.63781367284  0.
-0.184608810391 -2.82870776806  0.
-0.187528633222 -3.02271573741  0.
-0.190060077569 -3.21944774781  0.
-0.192204743361 -3.41851323436  0.
-0.193965893214 -3.61952080434  0.
-0.195347994329 -3.82207867129  0.
-0.196347049603 -4.02580513912  0.
-0.196943900218 -4.23035836175  0.
-0.197120211988 -4.43545881103  0.
0.0 0.0  0.
8.48194390325e-17 -0.0120327363595  0.
1.74908469332e-16 -0.0360456193707  0.
2.67755234743e-16 -0.0716940611245  0.
3.65585081062e-16 -0.118616744118  0.
4.59777076194e-16 -0.176436407253  0.
5.53855032878e-16 -0.244767035253  0.
6.4970343806e-16 -0.323219491557  0.
7.52256776959e-16 -0.411404191853  0.
8.4734965107e-16 -0.508931608513  0.
9.48472712669e-16 -0.615412339395  0.
1.0591469918e-15 -0.730457058059  0.
1.15588797296e-15 -0.853676473872  0.
1.24393371834e-15 -0.984681310144  0.
1.33079787721e-15 -1.12308229477  0.
1.43448698039e-15 -1.26849015683  0.
1.54017447199e-15 -1.4205156256  0.
1.59783490565e-15 -1.57876943037  0.
1.69282764768e-15 -1.74286230066  0.
1.74007279888e-15 -1.91240496643  0.
1.80830014189e-15 -2.08700815832  0.
1.92700125414e-15 -2.26628260665  0.
2.04814050423e-15 -2.44983903596  0.
2.15282904685e-15 -2.63728814506  0.
2.21021325189e-15 -2.82824054888  0.
2.23789406786e-15 -3.02230663783  0.
2.27755617639e-15 -3.21909628468  0.
2.40761449023e-15 -3.41821847872  0.
2.47703607164e-15 -3.61928126015  0.
2.46394310841e-15 -3.82189569604  0.
2.42796653609e-15 -4.02568958265  0.
2.5083276062e-15 -4.23032830114  0.
2.50352427294e-15 -4.43551797401  0.
-0.002291015625 -0.0019125  0.
0.010014650165 -0.0138667515608  0.
0.0219029742677 -0.0378055164054  0.
0.0333866889291 -0.073388002146  0.
0.044476663684 -0.120250468201  0.
0.0551786045456 -0.1780120952  0.
0.0654927896434 -0.246284747819  0.
0.0754185927767 -0.324679075713  0.
0.0849555249058 -0.412805503711  0.
0.0941033367903 -0.510274575543  0.
0.102861924956 -0.616696930436  0.
0.111231253202 -0.731683262063  0.
0.119211311271 -0.8548442876  0.
0.12680209728 -0.985790732951  0.
0.134003611421 -1.12413332668  0.
0.140815854109 -1.26948279795  0.
0.147238825587 -1.42144987597  0.
0.153272525887 -1.57964528995  0.
0.158916954757 -1.74367976921  0.
0.164172111409 -1.91316404345  0.
0.169037994047 -2.08770884291  0.
0.173514599515 -2.26692489813  0.
0.177601924852 -2.450422937  0.
0.181299977188 -2.63781367284  0.
0.184608810391 -2.82870776806  0.
0.187528633222 -3.02271573741  0.
0.190060077569 -3.21944774781  0.
0.192204743361 -3.41851323436  0.
0.193965893214 -3.61952080434  0.
0.195347994329 -3.82207867129  0.
0.196347049603 -4.02580513912  0.
0.196943900218 -4.23035836175  0.
0.197120211988 -4.43545881103  0.
-0.003665625 -0.00765  0.
0.0209351915328 -0.0193625584177  0.
0.0447012699245 -0.043078437286  0.
0.0676615801671 -0.0784671413973  0.
0.089843713512 -0.125152479311  0.
0.111250100556 -0.182739786549  0.
0.131879926935 -0.250838279325  0.
0.151732180521 -0.329057995272  0.
0.170806285722 -0.417009502385  0.
0.189101983796 -0.514303495801  0.
0.206619176932 -0.620550707887  0.
0.22335783428 -0.735361874266  0.
0.239317948522 -0.858347728277  0.
0.254499519065 -0.989119000983  0.
0.268902546579 -1.12728642221  0.
0.282527031627 -1.27246072123  0.
0.295372974495 -1.42425262711  0.
0.307440375238 -1.58227286884  0.
0.31872923363 -1.74613217538  0.
0.329239548896 -1.91544127577  0.
0.338971319093 -2.08981089938  0.
0.347924540267 -2.26885177676  0.
0.35609920666 -2.45217464185  0.
0.363495317397 -2.63939023678  0.
0.370112907012 -2.83010931959  0.
0.375952145927 -3.02394267151  0.
0.381013614459 -3.22050106349  0.
0.38529893445 -3.41939512245  0.
0.38881198304 -3.62023441972  0.
0.391560063258 -3.82262602669  0.
0.393553576263 -4.02616257775  0.
0.394758623062 -4.23045678263  0.
0.395113449545 -4.43526599671  0.
-0.003207421875 -0.0172125  0.
0.0336650909418 -0.0284921302021  0.
0.0692685372526 -0.0518423009795  0.
0.10371366298 -0.086932201387  0.
0.136995007341 -0.133324652596  0.
0.169109755628 -0.190621114085  0.
0.200056894844 -0.258428410479  0.
0.229836206027 -0.33635657725  0.
0.258447666414 -0.424016299904  0.
0.285891289503 -0.521018400711  0.
0.312167088052 -0.626973677222  0.
0.337275069034 -0.741492893895  0.
0.361215235506 -0.864186794534  0.
0.383987588596 -0.994666113382  0.
0.405592128651 -1.13254158095  0.
0.426028855749 -1.27742392652  0.
0.445297769903 -1.42892387903  0.
0.463398871127 -1.58665216732  0.
0.480332159463 -1.75021952011  0.
0.496097634983 -1.91923666595  0.
0.51069529772 -2.09331433346  0.
0.524125147329 -2.27206325279  0.
0.536387181933 -2.45509416091  0.
0.547481394898 -2.64201781709  0.
0.557407767262 -2.83244504118  0.
0.566166252999 -3.02598678972  0.
0.573756760517 -3.22225427668  0.
0.580179164587 -3.42085895165  0.
0.585433538552 -3.62141205036  0.
0.589521679158 -3.82351972344  0.
0.592452476221 -4.02677787352  0.
0.594268791652 -4.23067584359  0.
0.59481871735 -4.43486985871  0.
0.0 -0.0306  0.
0.0489758087656 -0.0411595670449  0.
0.0964899665353 -0.0641122053542  0.
0.142445140963 -0.0987860655796  0.
0.186832201429 -0.144769589623  0.
0.229656235414 -0.201656946881  0.
0.270920435457 -0.269055481171  0.
0.310626501495 -0.346574915597  0.
0.348775139807 -0.433825916073  0.
0.385366607542 -0.53041928965  0.
0.420400980848 -0.63596583518  0.
0.453878275702 -0.750076318707  0.
0.485798492046 -0.87236148527  0.
0.516161627464 -1.0024320697  0.
0.544967680251 -1.13989880274  0.
0.572216649547 -1.28437241375  0.
0.597908534994 -1.4354636317  0.
0.622043336492 -1.59278318542  0.
0.644621054183 -1.75594180362  0.
0.665641688749 -1.92455021485  0.
0.685105242305 -2.09821914786  0.
0.703011720288 -2.27655933326  0.
0.719361134381 -2.45918150946  0.
0.734153503739 -2.64569643957  0.
0.747388840968 -2.83571495124  0.
0.759067078264 -3.0288480169  0.
0.769187804471 -3.22470684909  0.
0.777749534167 -3.42290292772  0.
0.784747798384 -3.62304692193  0.
0.790171407916 -3.82474677336  0.
0.793991950522 -4.02758328223  0.
0.796165344167 -4.23112043828  0.
0.796710437593 -4.4341085652  0.
</DataArray>
<DataArray type="Float64" Name="Nodal_sigma_xx" NumberOfComponents="1" format="ascii" >
-85749.2753072 
-84433.1001345 
-81758.0062089 
-79034.0296955 
-76304.0196628 
-73575.2854603 
-70848.474023 
-68122.7839857 
-65397.6107892 
-62672.6357569 
-59947.7246103 
-57222.8292067 
-54497.9354645 
-51773.040552 
-49048.1445593 
-46323.2479756 
-43598.3511636 
-40873.4544138 
-38148.5581903 
-35423.6635522 
-32698.7727648 
-29973.889626 
-27249.0170336 
-24524.1433183 
-21799.193236 
-19073.8877518 
-16347.3972903 
-13617.6665452 
-10880.3063635 
-8128.99767453 
-5360.60996242 
-2639.96528928 
-1307.72392465 
-73570.0815076 
-72399.8472852 
-70065.3363254 
-67733.791383 
-65398.5463171 
-63062.5364314 
-60726.566357 
-58390.7608303 
-56055.0587388 
-53719.4057478 
-51383.7719346 
-49048.1444356 
-46712.5185525 
-44376.892876 
-42041.2671055 
-39705.6412407 
-37370.0153367 
-35034.3894625 
-32698.7637319 
-30363.1383615 
-28027.5136927 
-25691.8899287 
-23356.265759 
-21020.6335555 
-18684.9658819 
-16349.1827064 
-14013.0909468 
-11676.3046869 
-9338.45186646 
-7000.33260805 
-4670.04880738 
-2344.41410212 
-1180.1670689 
-49122.0868572 
-48304.2517341 
-46703.4186708 
-45144.2957264 
-43591.9156502 
-42038.3722143 
-40483.0892412 
-38926.7543486 
-37369.9336022 
-35812.9247562 
-34255.854873 
-32698.7697075 
-31141.6827948 
-29584.5969205 
-28027.5120458 
-26470.427724 
-24913.3436162 
-23356.2594475 
-21799.1747777 
-20242.088609 
-18684.9988245 
-17127.9019291 
-15570.7954621 
-14013.6911858 
-12456.6616371 
-10899.9734467 
-9344.40949707 
-7791.91428478 
-6246.49579941 
-4714.1360139 
-3194.7629545 
-1635.58416208 
-833.698670055 
-24570.4403821 
-24162.6747529 
-23357.1166797 
-22570.167122 
-21793.3990756 
-21017.6769187 
-20240.8640332 
-19463.1210719 
-18684.8867258 
-17906.4437445 
-17127.9261437 
-16349.3867111 
-15570.8429083 
-14792.2992588 
-14013.7563699 
-13235.2139901 
-12456.6718133 
-11678.1295398 
-10899.5866828 
-10121.0422263 
-9342.49426159 
-8563.94039111 
-7785.38197534 
-7006.84159877 
-6228.41773551 
-5450.427677 
-4673.719311 
-3900.1736581 
-3132.8688696 
-2373.03879299 
-1606.8491416 
-813.957092491 
-409.065256761 
1.82808435056e-10 
1.85082171811e-10 
1.87355908565e-10 
1.91903382074e-10 
1.92812876776e-10 
1.88265403267e-10 
1.82353687705e-10 
1.96450855583e-10 
2.08274286706e-10 
2.04181560548e-10 
2.11002770811e-10 
1.99179339688e-10 
1.71894498635e-10 
1.78943082574e-10 
2.11684891838e-10 
1.76669345819e-10 
1.18006937555e-10 
1.2573764252e-10 
1.23691279441e-10 
8.4128259914e-11 
7.38964445191e-11 
1.02545527625e-10 
1.06751940621e-10 
8.6970430857e-11 
8.42419467517e-11 
8.08313416201e-11 
1.98951966013e-11 
-1.22213350551e-11 
3.84829945688e-11 
7.4749095802e-11 
4.42241798737e-11 
-5.68434188608e-12 
-1.52482471094e-11 
24570.4403821 
24162.6747529 
23357.1166797 
22570.167122 
21793.3990756 
21017.6769187 
20240.8640332 
19463.1210719 
18684.8867258 
17906.4437445 
17127.9261437 
16349.3867111 
15570.8429083 
14792.2992588 
14013.7563699 
13235.2139901 
12456.6718133 
11678.1295398 
10899.5866828 
10121.0422263 
9342.49426159 
8563.94039111 
7785.38197534 
7006.84159877 
6228.41773551 
5450.427677 
4673.719311 
3900.1736581 
3132.8688696 
2373.03879299 
1606.8491416 
813.957092491 
409.065256762 
49122.0868572 
48304.2517341 
46703.4186708 
45144.2957264 
43591.9156502 
42038.3722143 
40483.0892412 
38926.7543486 
37369.9336022 
35812.9247562 
34255.854873 
32698.7697075 
31141.6827948 
29584.5969205 
28027.5120458 
26470.427724 
24913.3436162 
23356.2594475 
21799.1747777 
20242.088609 
18684.9988245 
17127.9019291 
15570.7954621 
14013.6911858 
12456.6616371 
10899.9734467 
9344.40949707 
7791.91428478 
6246.49579941 
4714.1360139 
3194.7629545 
1635.58416208 
833.698670055 
73570.0815076 
72399.8472852 
70065.3363254 
67733.791383 
65398.5463171 
63062.5364314 
60726.566357 
58390.7608303 
56055.0587388 
53719.4057478 
51383.7719346 
49048.1444356 
46712.5185525 
44376.892876 
42041.2671055 
39705.6412407 
37370.0153367 
35034.3894625 
32698.7637319 
30363.1383615 
28027.5136927 
25691.8899287 
23356.265759 
21020.6335555 
18684.9658819 
16349.1827064 
14013.0909468 
11676.3046869 
9338.45186646 
7000.33260805 
4670.04880738 
2344.41410212 
1180.1670689 
85749.2753072 
84433.1001345 
81758.0062089 
79034.0296955 
76304.0196628 
73575.2854603 
70848.474023 
68122.7839857 
65397.6107892 
62672.6357569 
59947.7246103 
57222.8292067 
54497.9354645 
51773.040552 
49048.1445593 
46323.2479756 
43598.3511636 
40873.4544138 
38148.5581903 
35423.6635522 
32698.7727648 
29973.889626 
27249.0170336 
24524.1433183 
21799.193236 
19073.8877518 
16347.3972903 
13617.6665452 
10880.3063635 
8128.99767453 
5360.60996242 
2639.96528928 
1307.72392465 
</DataArray>
<DataArray type="Float64" Name="Nodal_sigma_yy" NumberOfComponents="1" format="ascii" >
330.154250594 
166.208989772 
3.15302974089 
1.07598470647 
-1.42037765469 
-0.748982746182 
-0.385943734352 
-0.153418403906 
-0.0534250451874 
-0.0147248110497 
-0.00254941277035 
0.0003968832807 
0.00065963183124 
0.000410793248193 
0.00019475996578 
7.32886928745e-05 
-6.59783472656e-06 
-0.000131873707232 
-0.000447711138804 
-0.00120852256578 
-0.00273997085242 
-0.00493776810072 
-0.00507755949593 
0.00879876853332 
0.0769226216757 
0.302090575918 
0.954851969291 
2.39809559851 
6.29265436795 
8.49076362503 
33.0480325506 
-325.337296872 
-709.016000477 
302.479861271 
174.492145052 
26.266338879 
2.04427127233 
-1.98761073809 
-1.60272421982 
-0.848819992816 
-0.364202962534 
-0.132233926185 
-0.0395543219929 
-0.00836106231122 
-3.8567436377e-05 
0.00121931537728 
0.000873672423722 
0.000439892227632 
0.000167485151451 
-2.86178901661e-05 
-0.000338997683912 
-0.00108521708012 
-0.00278945729883 
-0.00597259628125 
-0.00970467335242 
-0.00609731352529 
0.0361459856789 
0.213107144163 
0.772195743314 
2.25317982452 
5.58317911242 
11.8535269774 
18.5752235369 
5.43817745791 
-305.678164624 
-600.938053252 
226.06326349 
155.609943918 
49.7611563813 
6.55314494927 
-2.17796594198 
-2.54045795455 
-1.46533669708 
-0.660822795112 
-0.250308078745 
-0.0790981947155 
-0.0188189379967 
-0.00156626240926 
0.00169422477484 
0.00143946649484 
0.000768500933304 
0.000295759332175 
-7.20547495803e-05 
-0.00065844348569 
-0.00201491182531 
-0.00497009764086 
-0.0100852332627 
-0.0146371346563 
-0.0019566093498 
0.089024785957 
0.437206015913 
1.48461794485 
4.13398706856 
9.72808403845 
18.3666303548 
22.280375382 
-32.4281884111 
-235.988808975 
-385.844842057 
118.7789145 
86.8130820726 
34.9995364751 
7.62827674088 
-1.0372341043 
-1.86861120322 
-1.16642099853 
-0.545813217412 
-0.213001414976 
-0.0697236694513 
-0.017723651248 
-0.00218597302316 
0.00109107498366 
0.001102504372 
0.0006173087599 
0.000239527826977 
-7.15330539975e-05 
-0.000569884235048 
-0.00169217285762 
-0.00405224289956 
-0.00788507738721 
-0.0103230299887 
0.00381114753745 
0.0875295058602 
0.391381234886 
1.27591309202 
3.44296337874 
7.75436422194 
13.462720777 
9.79235857901 
-30.8541528909 
-124.691931459 
-184.467482477 
4.32578417531e-11 
3.35660388373e-11 
1.56603618962e-11 
9.52127265919e-12 
-5.52802248421e-12 
-1.78062009581e-11 
-1.44382283906e-11 
3.49587025994e-12 
4.14956957684e-11 
3.36228822562e-11 
8.01492205937e-12 
-9.49285094975e-12 
-4.54178916698e-11 
-1.76214598469e-12 
6.34372554487e-11 
-3.02975422528e-11 
-1.31151978167e-10 
-1.56560986397e-10 
-1.85082171811e-10 
-2.52398990597e-10 
-3.66398467122e-10 
-3.5777247831e-10 
-2.45520936915e-10 
-1.95953475668e-10 
-1.41241685014e-10 
-3.12745385145e-11 
-3.27116111976e-10 
-5.03256103457e-10 
-1.54988910595e-10 
1.33438149419e-10 
1.24288135339e-10 
-1.71596070686e-12 
-4.5758952183e-12 
-118.7789145 
-86.8130820726 
-34.9995364751 
-7.62827674087 
1.03723410432 
1.86861120325 
1.16642099856 
0.545813217468 
0.21300141505 
0.0697236694537 
0.017723651196 
0.00218597297058 
-0.00109107508092 
-0.00110250446994 
-0.00061730875251 
-0.000239527771782 
7.15330301659e-05 
0.000569884131465 
0.00169217273938 
0.00405224265819 
0.00788507683158 
0.0103230294285 
-0.00381114786948 
-0.0875295062002 
-0.391381235156 
-1.27591309225 
-3.44296337953 
-7.75436422297 
-13.4627207774 
-9.79235857886 
30.8541528911 
124.691931459 
184.467482477 
-226.06326349 
-155.609943918 
-49.7611563812 
-6.55314494926 
2.17796594202 
2.5404579546 
1.46533669714 
0.660822795198 
0.250308078815 
0.0790981947404 
0.0188189379548 
0.00156626225748 
-0.00169422497061 
-0.00143946668811 
-0.000768501121456 
-0.000295759391292 
7.20548136997e-05 
0.00065844343203 
0.00201491156645 
0.00497009734528 
0.0100852329879 
0.0146371345652 
0.00195660950578 
-0.089024785922 
-0.437206015935 
-1.48461794464 
-4.13398706848 
-9.72808403889 
-18.3666303554 
-22.2803753822 
32.4281884112 
235.988808975 
385.844842057 
-302.479861271 
-174.492145052 
-26.266338879 
-2.04427127231 
1.98761073809 
1.60272421979 
0.848819992851 
0.364202962606 
0.132233926204 
0.0395543219777 
0.00836106225347 
3.85673149594e-05 
-0.00121931549484 
-0.000873672542184 
-0.000439892401118 
-0.000167485341763 
2.86178787974e-05 
0.000338997693461 
0.00108521679761 
0.0027894570029 
0.00597259624169 
0.0097046734619 
0.00609731368218 
-0.0361459855151 
-0.213107143923 
-0.77219574291 
-2.25317982401 
-5.58317911182 
-11.8535269774 
-18.5752235375 
-5.43817745811 
305.678164624 
600.938053252 
-330.154250594 
-166.208989772 
-3.15302974087 
-1.07598470645 
1.42037765465 
0.748982746119 
0.385943734398 
0.153418403981 
0.0534250451483 
0.014724810907 
0.00254941261846 
-0.000396883306166 
-0.00065963177849 
-0.000410793290939 
-0.000194760048544 
-7.32887842787e-05 
6.59789839119e-06 
0.000131873939608 
0.000447711225206 
0.00120852258715 
0.00273997094428 
0.00493776809708 
0.00507755932472 
-0.00879876856379 
-0.0769226214077 
-0.30209057594 
-0.954851969367 
-2.39809559748 
-6.29265436728 
-8.49076362572 
-33.0480325511 
325.337296872 
709.016000477 
</DataArray>
<DataArray type="Float64" Name="Nodal_sigma_xy" NumberOfComponents="1" format="ascii" >
-1277.32982618 
-1363.79221698 
-1457.98372067 
-1465.03010543 
-1462.97077943 
-1460.76060719 
-1459.53373085 
-1458.98449677 
-1458.77638886 
-1458.71041527 
-1458.6946039 
-1458.69321686 
-1458.69458845 
-1458.69577039 
-1458.69640847 
-1458.69668489 
-1458.69675652 
-1458.69662634 
-1458.69605461 
-1458.69437536 
-1458.69025971 
-1458.68194397 
-1458.66998437 
-1458.66888538 
-1458.74393047 
-1459.10868523 
-1460.34423224 
-1463.80837895 
-1472.30758046 
-1490.19073456 
-1520.10676856 
-1421.72472685 
-1305.33433955 
-2524.06608345 
-2563.91235795 
-2616.31275326 
-2629.98301993 
-2630.2577269 
-2628.64818971 
-2627.46450896 
-2626.86848603 
-2626.62198216 
-2626.53593763 
-2626.51162377 
-2626.50719402 
-2626.50767412 
-2626.50867652 
-2626.50931819 
-2626.50961714 
-2626.50968447 
-2626.50949903 
-2626.50878877 
-2626.50687143 
-2626.50257418 
-2626.49500073 
-2626.48780106 
-2626.50439214 
-2626.63180011 
-2627.12731907 
-2628.63207336 
-2632.47804194 
-2640.64599767 
-2653.77747503 
-2655.94681536 
-2592.67959473 
-2534.93501795 
-4600.95462916 
-4579.77439119 
-4563.64874345 
-4570.91660755 
-4573.41188538 
-4573.54677964 
-4573.25830685 
-4573.0402141 
-4572.93032404 
-4572.88509771 
-4572.86941313 
-4572.86502506 
-4572.86424905 
-4572.86435245 
-4572.86454008 
-4572.86464888 
-4572.86466378 
-4572.86455399 
-4572.8642084 
-4572.86341473 
-4572.86199663 
-4572.86058625 
-4572.86340052 
-4572.88629127 
-4572.97648259 
-4573.25227783 
-4573.95710367 
-4575.42037816 
-4577.36735131 
-4575.58003705 
-4556.52817213 
-4567.190401 
-4594.13380256 
-5843.12141655 
-5803.27514205 
-5750.87474674 
-5737.20448007 
-5736.9297731 
-5738.53931029 
-5739.72299104 
-5740.31901396 
-5740.56551784 
-5740.65156237 
-5740.67587623 
-5740.68030598 
-5740.67982588 
-5740.67882348 
-5740.67818181 
-5740.67788286 
-5740.67781553 
-5740.67800097 
-5740.67871123 
-5740.68062857 
-5740.68492582 
-5740.69249927 
-5740.69969894 
-5740.68310786 
-5740.55569989 
-5740.06018092 
-5738.55542664 
-5734.70945806 
-5726.54150233 
-5713.41002497 
-5711.24068464 
-5774.50790527 
-5832.25248204 
-6255.13591551 
-6211.03400064 
-6149.09379243 
-6127.51167945 
-6124.58044981 
-6126.52083352 
-6128.32465545 
-6129.31007502 
-6129.73796306 
-6129.89438931 
-6129.94156983 
-6129.95173302 
-6129.95191344 
-6129.95052471 
-6129.94951136 
-6129.94901734 
-6129.94891592 
-6129.94926568 
-6129.9505286 
-6129.95379517 
-6129.96074702 
-6129.97188353 
-6129.97821459 
-6129.93353207 
-6129.67810435 
-6128.7617591 
-6126.11656041 
-6119.72586473 
-6107.33271691 
-6093.02419134 
-6101.21188718 
-6178.26947114 
-6240.77305533 
-5843.12141655 
-5803.27514205 
-5750.87474674 
-5737.20448007 
-5736.9297731 
-5738.53931029 
-5739.72299104 
-5740.31901396 
-5740.56551784 
-5740.65156237 
-5740.67587623 
-5740.68030598 
-5740.67982588 
-5740.67882348 
-5740.67818181 
-5740.67788286 
-5740.67781553 
-5740.67800097 
-5740.67871123 
-5740.68062857 
-5740.68492582 
-5740.69249927 
-5740.69969894 
-5740.68310786 
-5740.55569989 
-5740.06018092 
-5738.55542664 
-5734.70945806 
-5726.54150233 
-5713.41002497 
-5711.24068464 
-5774.50790527 
-5832.25248204 
-4600.95462916 
-4579.77439119 
-4563.64874345 
-4570.91660755 
-4573.41188538 
-4573.54677964 
-4573.25830685 
-4573.0402141 
-4572.93032404 
-4572.88509771 
-4572.86941313 
-4572.86502506 
-4572.86424905 
-4572.86435245 
-4572.86454008 
-4572.86464888 
-4572.86466378 
-4572.86455399 
-4572.8642084 
-4572.86341473 
-4572.86199664 
-4572.86058625 
-4572.86340052 
-4572.88629127 
-4572.97648259 
-4573.25227783 
-4573.95710367 
-4575.42037816 
-4577.36735131 
-4575.58003705 
-4556.52817213 
-4567.190401 
-4594.13380256 
-2524.06608345 
-2563.91235795 
-2616.31275326 
-2629.98301993 
-2630.2577269 
-2628.64818971 
-2627.46450896 
-2626.86848603 
-2626.62198216 
-2626.53593763 
-2626.51162377 
-2626.50719402 
-2626.50767412 
-2626.50867652 
-2626.50931819 
-2626.50961714 
-2626.50968447 
-2626.50949903 
-2626.50878877 
-2626.50687143 
-2626.50257418 
-2626.49500073 
-2626.48780106 
-2626.50439214 
-2626.63180011 
-2627.12731907 
-2628.63207336 
-2632.47804194 
-2640.64599767 
-2653.77747503 
-2655.94681536 
-2592.67959473 
-2534.93501795 
-1277.32982618 
-1363.79221698 
-1457.98372067 
-1465.03010543 
-1462.97077943 
-1460.76060719 
-1459.53373085 
-1458.98449677 
-1458.77638886 
-1458.71041527 
-1458.6946039 
-1458.69321686 
-1458.69458845 
-1458.69577039 
-1458.69640847 
-1458.69668489 
-1458.69675652 
-1458.69662634 
-1458.69605461 
-1458.69437536 
-1458.69025971 
-1458.68194397 
-1458.66998437 
-1458.66888538 
-1458.74393046 
-1459.10868523 
-1460.34423225 
-1463.80837895 
-1472.30758046 
-1490.19073456 
-1520.10676856 
-1421.72472685 
-1305.33433955 
</DataArray>
</PointData>
<CellData>
</CellData>
<Points>
<DataArray type="Float64" Name="Points" NumberOfComponents="3" format="ascii">
0.0 -2.0 0.0
0.5 -2.0 0.0
1.0 -2.0 0.0
1.5 -2.0 0.0
2.0 -2.0 0.0
2.5 -2.0 0.0
3.0 -2.0 0.0
3.5 -2.0 0.0
4.0 -2.0 0.0
4.5 -2.0 0.0
5.0 -2.0 0.0
5.5 -2.0 0.0
6.0 -2.0 0.0
6.5 -2.0 0.0
7.0 -2.0 0.0
7.5 -2.0 0.0
8.0 -2.0 0.0
8.5 -2.0 0.0
9.0 -2.0 0.0
9.5 -2.0 0.0
10.0 -2.0 0.0
10.5 -2.0 0.0
11.0 -2.0 0.0
11.5 -2.0 0.0
12.0 -2.0 0.0
12.5 -2.0 0.0
13.0 -2.0 0.0
13.5 -2.0 0.0
14.0 -2.0 0.0
14.5 -2.0 0.0
15.0 -2.0 0.0
15.5 -2.0 0.0
16.0 -2.0 0.0
0.0 -1.5 0.0
0.5 -1.5 0.0
1.0 -1.5 0.0
1.5 -1.5 0.0
2.0 -1.5 0.0
2.5 -1.5 0.0
3.0 -1.5 0.0
3.5 -1.5 0.0
4.0 -1.5 0.0
4.5 -1.5 0.0
5.0 -1.5 0.0
5.5 -1.5 0.0
6.0 -1.5 0.0
6.5 -1.5 0.0
7.0 -1.5 0.0
7.5 -1.5 0.0
8.0 -1.5 0.0
8.5 -1.5 0.0
9.0 -1.5 0.0
9.5 -1.5 0.0
10.0 -1.5 0.0
10.5 -1.5 0.0
11.0 -1.5 0.0
11.5 -1.5 0.0
12.0 -1.5 0.0
12.5 -1.5 0.0
13.0 -1.5 0.0
13.5 -1.5 0.0
14.0 -1.5 0.0
14.5 -1.5 0.0
15.0 -1.5 0.0
15.5 -1.5 0.0
16.0 -1.5 0.0
0.0 -1.0 0.0
0.5 -1.0 0.0
1.0 -1.0 0.0
1.5 -1.0 0.0
2.0 -1.0 0.0
2.5 -1.0 0.0
3.0 -1.0 0.0
3.5 -1.0 0.0
4.0 -1.0 0.0
4.5 -1.0 0.0
5.0 -1.0 0.0
5.5 -1.0 0.0
6.0 -1.0 0.0
6.5 -1.0 0.0
7.0 -1.0 0.0
7.5 -1.0 0.0
8.0 -1.0 0.0
8.5 -1.0 0.0
9.0 -1.0 0.0
9.5 -1.0 0.0
10.0 -1.0 0.0
10.5 -1.0 0.0
11.0 -1.0 0.0
11.5 -1.0 0.0
12.0 -1.0 0.0
12.5 -1.0 0.0
13.0 -1.0 0.0
13.5 -1.0 0.0
14.0 -1.0 0.0
14.5 -1.0 0.0
15.0 -1.0 0.0
15.5 -1.0 0.0
16.0 -1.0 0.0
0.0 -0.5 0.0
0.5 -0.5 0.0
1.0 -0.5 0.0
1.5 -0.5 0.0
2.0 -0.5 0.0
2.5 -0.5 0.0
3.0 -0.5 0.0
3.5 -0.5 0.0
4.0 -0.5 0.0
4.5 -0.5 0.0
5.0 -0.5 0.0
5.5 -0.5 0.0
6.0 -0.5 0.0
6.5 -0.5 0.0
7.0 -0.5 0.0
7.5 -0.5 0.0
8.0 -0.5 0.0
8.5 -0.5 0.0
9.0 -0.5 0.0
9.5 -0.5 0.0
10.0 -0.5 0.0
10.5 -0.5 0.0
11.0 -0.5 0.0
11.5 -0.5 0.0
12.0 -0.5 0.0
12.5 -0.5 0.0
13.0 -0.5 0.0
13.5 -0.5 0.0
14.0 -0.5 0.0
14.5 -0.5 0.0
15.0 -0.5 0.0
15.5 -0.5 0.0
16.0 -0.5 0.0
0.0 0.0 0.0
0.5 0.0 0.0
1.0 0.0 0.0
1.5 0.0 0.0
2.0 0.0 0.0
2.5 0.0 0.0
3.0 0.0 0.0
3.5 0.0 0.0
4.0 0.0 0.0
4.5 0.0 0.0
5.0 0.0 0.0
5.5 0.0 0.0
6.0 0.0 0.0
6.5 0.0 0.0
7.0 0.0 0.0
7.5 0.0 0.0
8.0 0.0 0.0
8.5 0.0 0.0
9.0 0.0 0.0
9.5 0.0 0.0
10.0 0.0 0.0
10.5 0.0 0.0
11.0 0.0 0.0
11.5 0.0 0.0
12.0 0.0 0.0
12.5 0.0 0.0
13.0 0.0 0.0
13.5 0.0 0.0
14.0 0.0 0.0
14.5 0.0 0.0
15.0 0.0 0.0
15.5 0.0 0.0
16.0 0.0 0.0
0.0 0.5 0.0
0.5 0.5 0.0
1.0 0.5 0.0
1.5 0.5 0.0
2.0 0.5 0.0
2.5 0.5 0.0
3.0 0.5 0.0
3.5 0.5 0.0
4.0 0.5 0.0
4.5 0.5 0.0
5.0 0.5 0.0
5.5 0.5 0.0
6.0 0.5 0.0
6.5 0.5 0.0
7.0 0.5 0.0
7.5 0.5 0.0
8.0 0.5 0.0
8.5 0.5 0.0
9.0 0.5 0.0
9.5 0.5 0.0
10.0 0.5 0.0
10.5 0.5 0.0
11.0 0.5 0.0
11.5 0.5 0.0
12.0 0.5 0.0
12.5 0.5 0.0
13.0 0.5 0.0
13.5 0.5 0.0
14.0 0.5 0.0
14.5 0.5 0.0
15.0 0.5 0.0
15.5 0.5 0.0
16.0 0.5 0.0
0.0 1.0 0.0
0.5 1.0 0.0
1.0 1.0 0.0
1.5 1.0 0.0
2.0 1.0 0.0
2.5 1.0 0.0
3.0 1.0 0.0
3.5 1.0 0.0
4.0 1.0 0.0
4.5 1.0 0.0
5.0 1.0 0.0
5.5 1.0 0.0
6.0 1.0 0.0
6.5 1.0 0.0
7.0 1.0 0.0
7.5 1.0 0.0
8.0 1.0 0.0
8.5 1.0 0.0
9.0 1.0 0.0
9.5 1.0 0.0
10.0 1.0 0.0
10.5 1.0 0.0
11.0 1.0 0.0
11.5 1.0 0.0
12.0 1.0 0.0
12.5 1.0 0.0
13.0 1.0 0.0
13.5 1.0 0.0
14.0 1.0 0.0
14.5 1.0 0.0
15.0 1.0 0.0
15.5 1.0 0.0
16.0 1.0 0.0
0.0 1.5 0.0
0.5 1.5 0.0
1.0 1.5 0.0
1.5 1.5 0.0
2.0 1.5 0.0
2.5 1.5 0.0
3.0 1.5 0.0
3.5 1.5 0.0
4.0 1.5 0.0
4.5 1.5 0.0
5.0 1.5 0.0
5.5 1.5 0.0
6.0 1.5 0.0
6.5 1.5 0.0
7.0 1.5 0.0
7.5 1.5 0.0
8.0 1.5 0.0
8.5 1.5 0.0
9.0 1.5 0.0
9.5 1.5 0.0
10.0 1.5 0.0
10.5 1.5 0.0
11.0 1.5 0.0
11.5 1.5 0.0
12.0 1.5 0.0
12.5 1.5 0.0
13.0 1.5 0.0
13.5 1.5 0.0
14.0 1.5 0.0
14.5 1.5 0.0
15.0 1.5 0.0
15.5 1.5 0.0
16.0 1.5 0.0
0.0 2.0 0.0
0.5 2.0 0.0
1.0 2.0 0.0
1.5 2.0 0.0
2.0 2.0 0.0
2.5 2.0 0.0
3.0 2.0 0.0
3.5 2.0 0.0
4.0 2.0 0.0
4.5 2.0 0.0
5.0 2.0 0.0
5.5 2.0 0.0
6.0 2.0 0.0
6.5 2.0 0.0
7.0 2.0 0.0
7.5 2.0 0.0
8.0 2.0 0.0
8.5 2.0 0.0
9.0 2.0 0.0
9.5 2.0 0.0
10.0 2.0 0.0
10.5 2.0 0.0
11.0 2.0 0.0
11.5 2.0 0.0
12.0 2.0 0.0
12.5 2.0 0.0
13.0 2.0 0.0
13.5 2.0 0.0
14.0 2.0 0.0
14.5 2.0 0.0
15.0 2.0 0.0
15.5 2.0 0.0
16.0 2.0 0.0
</DataArray>
</Points>
<Cells>
<DataArray type="Int64" Name="connectivity" format="ascii">
0 1 34 33 
1 2 35 34 
2 3 36 35 
3 4 37 36 
4 5 38 37 
5 6 39 38 
6 7 40 39 
7 8 41 40 
8 9 42 41 
9 10 43 42 
10 11 44 43 
11 12 45 44 
12 13 46 45 
13 14 47 46 
14 15 48 47 
15 16 49 48 
16 17 50 49 
17 18 51 50 
18 19 52 51 
19 20 53 52 
20 21 54 53 
21 22 55 54 
22 23 56 55 
23 24 57 56 
24 25 58 57 
25 26 59 58 
26 27 60 59 
27 28 61 60 
28 29 62 61 
29 30 63 62 
30 31 64 63 
31 32 65 64 
33 34 67 66 
34 35 68 67 
35 36 69 68 
36 37 70 69 
37 38 71 70 
38 39 72 71 