<?xml version="1.0"?>
<VTKFile type="UnstructuredGrid" version="0.1" byte_order="LittleEndian" compressor="vtkZLibDataCompressor">
<UnstructuredGrid>
<Piece NumberOfPoints="297" NumberOfCells="256">
<PointData>
<DataArray type="Float64" Name="displacement" NumberOfComponents="3" format="ascii" >
0.0 -0.0036  0.
-0.00576185985477 -0.00484230200527  0.
-0.0113517607688 -0.0075426123946  0.
-0.016758251878 -0.0116218900682  0.
-0.0219802589916 -0.0170317164262  0.
-0.0270183806369 -0.0237243466918  0.
-0.0318729924067 -0.0316535860201  0.
-0.0365442942935 -0.040773519482  0.
-0.041032369389 -0.0510383430673  0.
-0.045337247946 -0.0624022693705  0.
-0.0494589389233 -0.0748195100211  0.
-0.0533974442002 -0.0882442727889  0.
-0.05715276377 -0.102630762973  0.
-0.0607248973487 -0.11793318467  0.
-0.0641138447353 -0.134105741498  0.
-0.067319605829 -0.151102636912  0.
-0.0703421805874 -0.168878074318  0.
-0.073181568999 -0.187386257108  0.
-0.0758377710802 -0.206581388661  0.
-0.0783107869115 -0.226417672335  0.
-0.0806006167417 -0.246849311513  0.
-0.0827072612102 -0.267830509795  0.
-0.0846307216918 -0.289315471701  0.
-0.0863710004398 -0.311258404655  0.
-0.0879280989373 -0.333613523675  0.
-0.0893020092075 -0.356335060811  0.
-0.0904926828788 -0.379377276364  0.
-0.0914999451961 -0.402694462084  0.
-0.092323270398 -0.426240814344  0.
-0.0929613421077 -0.44997020863  0.
-0.0934108177083 -0.473833327321  0.
-0.0936665110784 -0.497778875091  0.
-0.0937306397168 -0.521659831199  0.
0.00037734375 -0.002025  0.
-0.00396059893432 -0.00335201531789  0.
-0.00814923967677 -0.00609909423287  0.
-0.0122016074094 -0.0102273178102  0.
-0.0161170596871 -0.0156852532466  0.
-0.019895265368 -0.0224260134217  0.
-0.0235361052757 -0.0304033424093  0.
-0.0270395536502 -0.0395713620294  0.
-0.0304056078134 -0.0498842705769  0.
-0.0336342693533 -0.0612962824366  0.
-0.0367255397708 -0.0737616090848  0.
-0.0396794198863 -0.0872344581052  0.
-0.0424959100595 -0.101669034651  0.
-0.0451750104231 -0.117019542751  0.
-0.0477167210177 -0.133240185994  0.
-0.0501210418528 -0.150285167825  0.
-0.0523879729297 -0.16810869165  0.
-0.0545175142502 -0.186664960861  0.
-0.0565096658191 -0.205908178836  0.
-0.058364427645 -0.225792548935  0.
-0.0600817997317 -0.246272274524  0.
-0.0616617820387 -0.267301559151  0.
-0.063104374345 -0.288834607166  0.
-0.0644095758703 -0.310825625539  0.
-0.0655773843837 -0.333228828373  0.
-0.0666077944704 -0.355998445849  0.
-0.0675007953549 -0.379088738432  0.
-0.0682563723043 -0.402453994312  0.
-0.0688745339472 -0.426048476512  0.
-0.0693554916656 -0.449825849815  0.
-0.0697002913201 -0.473738573355  0.
-0.0699139754884 -0.497726569833  0.
-0.0699786726294 -0.521749395142  0.
0.00043125 -0.0009  0.
-0.00246296370974 -0.00227794804914  0.
-0.00525897293228 -0.0050680514454  0.
-0.00796018590201 -0.00923142839967  0.
-0.0105698486485 -0.0147238210954  0.
-0.0130882471242 -0.0214987984175  0.
-0.0155152855217 -0.0295103858029  0.
-0.0178508447672 -0.038712705326  0.
-0.0200948571437 -0.049059941457  0.
-0.0222472922112 -0.0605062936235  0.
-0.0243081384625 -0.0730059656336  0.
-0.0262773922682 -0.0865131616782  0.
-0.0281550527673 -0.100982085679  0.
-0.02994111989 -0.116366941292  0.
-0.0316355937151 -0.132621932025  0.
-0.033238474309 -0.149701261321  0.
-0.0347497617053 -0.167559132601  0.
-0.0361694559103 -0.186149749275  0.
-0.0374975568977 -0.205427314751  0.
-0.038734064576 -0.225346032444  0.
-0.0398789787167 -0.245860105809  0.
-0.0409322988549 -0.266923738442  0.
-0.0418940243128 -0.288491134335  0.
-0.0427641549878 -0.310516498445  0.
-0.0435426949425 -0.332954037598  0.
-0.0442296642267 -0.355757961353  0.
-0.0448251311128 -0.378882478058  0.
-0.0453292864058 -0.402281779112  0.
-0.0457425862399 -0.425909931732  0.
-0.046065889795 -0.449720709022  0.
-0.0463004207368 -0.473666185618  0.
-0.0464421909485 -0.497700797956  0.
-0.0464839352406 -0.521795999613  0.
0.00026953125 -0.000225  0.
-0.00117819413706 -0.00163138253657  0.
-0.00257682050208 -0.00444770781239  0.
-0.00392784575636 -0.0086338826054  0.
-0.0052325486687 -0.0141471139059  0.
-0.00649160053477 -0.0209425994352  0.
-0.00770503407568 -0.028974676214  0.
-0.00887277562078 -0.0381975383191  0.
-0.00999476763596 -0.0485653533777  0.
-0.0110709807988 -0.060032303005  0.
-0.0121014029359 -0.0725525800512  0.
-0.0130860297884 -0.086080383772  0.
-0.0140248601495 -0.100569916188  0.
-0.0149178937976 -0.115975380347  0.
-0.0157651307554 -0.132250979609  0.
-0.0165665710717 -0.149350917406  0.
-0.017322214775 -0.167229397173  0.
-0.0180320618691 -0.185840622347  0.
-0.0186961123244 -0.205138796378  0.
-0.019314366048 -0.225078122758  0.
-0.0198868228291 -0.245612805048  0.
-0.0204134822959 -0.266697046839  0.
-0.0208943441002 -0.288285051411  0.
-0.0213294090809 -0.310331020334  0.
-0.0217186835754 -0.332789149183  0.
-0.0220621921438 -0.355613616165  0.
-0.0223600091258 -0.378758558565  0.
-0.0226123227483 -0.402178027571  0.
-0.0228195168487 -0.425825976981  0.
-0.0229821169798 -0.449656314269  0.
-0.0230996528945 -0.473624134013  0.
-0.0231698706139 -0.497689219029  0.
-0.0231906131751 -0.52181868365  0.
0.0 0.0  0.
8.10364367843e-17 -0.00141561604229  0.
1.67926721714e-16 -0.00424066110243  0.
2.59331048135e-16 -0.00843459542641  0.
3.51977474609e-16 -0.0139549110727  0.
4.45322296226e-16 -0.0207572243826  0.
5.37885070409e-16 -0.0287961217944  0.
6.3287707462e-16 -0.038025822536  0.
7.27637031171e-16 -0.0484004931592  0.
8.20093752426e-16 -0.0598743068838  0.
9.13985779078e-16 -0.0724014516935  0.
1.00961566404e-15 -0.0859361244774  0.
1.10024817732e-15 -0.100432526338  0.
1.19322300224e-15 -0.115844860017  0.
1.28456842282e-15 -0.132127328797  0.
1.37957405759e-15 -0.149234136098  0.
1.45532772772e-15 -0.167119485364  0.
1.54816894924e-15 -0.185737580044  0.
1.63283956659e-15 -0.205042623607  0.
1.70732449751e-15 -0.22498881958  0.
1.77781662446e-15 -0.245530371566  0.
1.87460422807e-15 -0.266621483135  0.
1.98069531487e-15 -0.288216357171  0.
2.05403651663e-15 -0.310269193537  0.
2.11478995961e-15 -0.33273418222  0.
2.16255287244e-15 -0.355565486804  0.
2.21150734587e-15 -0.378717209962  0.
2.27454305142e-15 -0.402143350437  0.
2.30133239194e-15 -0.425797795312  0.
2.32176065783e-15 -0.449634787768  0.
2.33406310553e-15 -0.473610539134  0.
2.36224845342e-15 -0.497685682486  0.
2.38411535827e-15 -0.521825644001  0.
-0.00026953125 -0.000225  0.
0.00117819413706 -0.00163138253657  0.
0.00257682050208 -0.00444770781239  0.
0.00392784575636 -0.0086338826054  0.
0.0052325486687 -0.0141471139059  0.
0.00649160053477 -0.0209425994352  0.
0.00770503407568 -0.028974676214  0.
0.00887277562078 -0.0381975383191  0.
0.00999476763596 -0.0485653533777  0.
0.0110709807989 -0.060032303005  0.
0.0121014029359 -0.0725525800512  0.
0.0130860297884 -0.086080383772  0.
0.0140248601495 -0.100569916188  0.
0.0149178937976 -0.115975380347  0.
0.0157651307555 -0.132250979609  0.
0.0165665710717 -0.149350917406  0.
0.017322214775 -0.167229397173  0.
0.0180320618691 -0.185840622347  0.
0.0186961123244 -0.205138796378  0.
0.0193143660481 -0.225078122758  0.
0.0198868228291 -0.245612805048  0.
0.0204134822959 -0.266697046839  0.
0.0208943441002 -0.288285051411  0.
0.0213294090809 -0.310331020334  0.
0.0217186835754 -0.332789149183  0.
0.0220621921438 -0.355613616165  0.
0.0223600091258 -0.378758558565  0.
0.0226123227483 -0.402178027571  0.
0.0228195168487 -0.425825976981  0.
0.0229821169798 -0.449656314269  0.
0.0230996528945 -0.473624134013  0.
0.0231698706139 -0.497689219029  0.
0.0231906131751 -0.52181868365  0.
-0.00043125 -0.0009  0.
0.00246296370974 -0.00227794804914  0.
0.00525897293229 -0.0050680514454  0.
0.00796018590201 -0.00923142839967  0.
0.0105698486485 -0.0147238210954  0.
0.0130882471242 -0.0214987984175  0.
0.0155152855217 -0.0295103858029  0.
0.0178508447672 -0.038712705326  0.
0.0200948571437 -0.049059941457  0.
0.0222472922112 -0.0605062936235  0.
0.0243081384625 -0.0730059656336  0.
0.0262773922682 -0.0865131616782  0.
0.0281550527673 -0.100982085679  0.
0.02994111989 -0.116366941292  0.
0.0316355937151 -0.132621932025  0.
0.033238474309 -0.149701261321  0.
0.0347497617053 -0.167559132601  0.
0.0361694559103 -0.186149749275  0.
0.0374975568977 -0.205427314751  0.
0.038734064576 -0.225346032444  0.
0.0398789787168 -0.245860105809  0.
0.0409322988549 -0.266923738442  0.
0.0418940243129 -0.288491134335  0.
0.0427641549878 -0.310516498445  0.
0.0435426949425 -0.332954037598  0.
0.0442296642267 -0.355757961353  0.
0.0448251311128 -0.378882478058  0.
0.0453292864058 -0.402281779112  0.
0.04574258624 -0.425909931732  0.
0.046065889795 -0.449720709022  0.
0.0463004207368 -0.473666185618  0.
0.0464421909485 -0.497700797956  0.
0.0464839352406 -0.521795999613  0.
-0.00037734375 -0.002025  0.
0.00396059893432 -0.00335201531789  0.
0.00814923967677 -0.00609909423287  0.
0.0122016074094 -0.0102273178102  0.
0.0161170596871 -0.0156852532466  0.
0.019895265368 -0.0224260134217  0.
0.0235361052757 -0.0304033424093  0.
0.0270395536502 -0.0395713620294  0.
0.0304056078134 -0.0498842705769  0.
0.0336342693533 -0.0612962824366  0.
0.0367255397708 -0.0737616090848  0.
0.0396794198863 -0.0872344581052  0.
0.0424959100595 -0.101669034651  0.
0.0451750104231 -0.117019542751  0.
0.0477167210177 -0.133240185994  0.
0.0501210418528 -0.150285167825  0.
0.0523879729298 -0.16810869165  0.
0.0545175142502 -0.186664960861  0.
0.0565096658191 -0.205908178836  0.
0.058364427645 -0.225792548935  0.
0.0600817997317 -0.246272274524  0.
0.0616617820387 -0.267301559151  0.
0.063104374345 -0.288834607166  0.
0.0644095758703 -0.310825625539  0.
0.0655773843837 -0.333228828373  0.
0.0666077944704 -0.355998445849  0.
0.0675007953549 -0.379088738432  0.
0.0682563723043 -0.402453994312  0.
0.0688745339472 -0.426048476512  0.
0.0693554916656 -0.449825849815  0.
0.0697002913201 -0.473738573355  0.
0.0699139754884 -0.497726569833  0.
0.0699786726294 -0.521749395142  0.
0.0 -0.0036  0.
0.00576185985477 -0.00484230200527  0.
0.0113517607688 -0.0075426123946  0.
0.016758251878 -0.0116218900682  0.
0.0219802589916 -0.0170317164262  0.
0.0270183806369 -0.0237243466918  0.
0.0318729924067 -0.0316535860201  0.
0.0365442942935 -0.040773519482  0.
0.041032369389 -0.0510383430673  0.
0.0453372479461 -0.0624022693705  0.
0.0494589389233 -0.0748195100211  0.
0.0533974442002 -0.0882442727889  0.
0.05715276377 -0.102630762973  0.
0.0607248973487 -0.11793318467  0.
0.0641138447353 -0.134105741498  0.
0.067319605829 -0.151102636912  0.
0.0703421805874 -0.168878074318  0.
0.073181568999 -0.187386257108  0.
0.0758377710802 -0.206581388661  0.
0.0783107869115 -0.226417672335  0.
0.0806006167417 -0.246849311513  0.
0.0827072612102 -0.267830509795  0.
0.0846307216918 -0.289315471701  0.
0.0863710004398 -0.311258404655  0.
0.0879280989373 -0.333613523675  0.
0.0893020092075 -0.356335060811  0.
0.0904926828788 -0.379377276364  0.
0.0914999451961 -0.402694462084  0.
0.092323270398 -0.426240814344  0.
0.0929613421077 -0.44997020863  0.
0.0934108177083 -0.473833327321  0.
0.0936665110784 -0.497778875091  0.
0.0937306397168 -0.521659831199  0.
</DataArray>
<DataArray type="Float64" Name="Nodal_sigma_xx" NumberOfComponents="1" format="ascii" >
-10088.1500361 
-9933.30589817 
-9618.58896574 
-9298.12114064 
-8976.94348973 
-8655.9159365 
-8335.11459094 
-8014.44517478 
-7693.83656343 
-7373.25126551 
-7052.67348355 
-6732.09755372 
-6411.52181934 
-6090.94594729 
-5770.36994814 
-5449.79387948 
-5129.21778395 
-4808.64169573 
-4488.06566944 
-4167.48982967 
-3846.91444292 
-3526.339956 
-3205.76670983 
-2885.19333157 
-2564.61096893 
-2243.98679433 
-1923.22321062 
-1602.07841708 
-1280.03604276 
-956.352667591 
-630.659995578 
-310.584151679 
-153.849873488 
-8655.30370677 
-8517.62909237 
-8242.98074415 
-7968.68133917 
-7693.94662553 
-7419.1219331 
-7144.30192435 
-6869.50127415 
-6594.71279279 
-6319.93008797 
-6045.14963936 
-5770.3699336 
-5495.59041794 
-5220.81092658 
-4946.03142417 
-4671.25191067 
-4396.47239255 
-4121.69287794 
-3846.91338022 
-3572.13392488 
-3297.35455208 
-3022.57528573 
-2747.79597164 
-2473.01571242 
-2198.23128022 
-1923.43325958 
-1648.59893492 
-1373.68290435 
-1098.64139605 
-823.568542123 
-549.41750675 
-275.813423779 
-138.843184576 
-5779.06904201 
-5682.85314519 
-5494.51984362 
-5311.09361486 
-5128.46066472 
-4945.69084874 
-4762.71638132 
-4579.61815865 
-4396.46277672 
-4213.28526543 
-4030.1005733 
-3846.91408324 
-3663.72738762 
-3480.54081417 
-3297.35435832 
-3114.16796752 
-2930.98160191 
-2747.79522912 
-2564.60879737 
-2381.42218929 
-2198.23515583 
-2015.04728577 
-1831.85828966 
-1648.66955126 
-1465.48960436 
-1282.34981726 
-1099.34229377 
-916.695798209 
-734.881858754 
-554.604236929 
-375.854465235 
-192.421666127 
-98.0821964771 
-2890.64004495 
-2842.66761798 
-2747.89607996 
-2655.31377905 
-2563.92930301 
-2472.66787279 
-2381.27812155 
-2289.77894963 
-2198.22196774 
-2106.64044052 
-2015.05013455 
-1923.45726012 
-1831.86387156 
-1740.27050103 
-1648.67721998 
-1557.08399883 
-1465.49080157 
-1373.89759291 
-1282.30431562 
-1190.71085015 
-1099.11697195 
-1007.52239895 
-915.927291215 
-824.334305737 
-732.755027707 
-641.226785529 
-549.849330706 
-458.843959776 
-368.572808188 
-279.181034469 
-189.041075482 
-95.75965794 
-48.1253243248 
1.74964043254e-10 
1.7865886548e-10 
1.8411583369e-10 
1.87299065146e-10 
1.88038029592e-10 
1.87981186173e-10 
1.87469595403e-10 
1.88435933524e-10 
1.89515958482e-10 
1.8462742446e-10 
1.83433712664e-10 
1.80847337106e-10 
1.7516299522e-10 
1.72065028892e-10 
1.66835434356e-10 
1.59133151101e-10 
1.60326862897e-10 
1.65783831108e-10 
1.66409108715e-10 
1.55495172294e-10 
1.651585535e-10 
1.87696969078e-10 
1.66977542904e-10 
1.50848222802e-10 
1.45860212797e-10 
1.23861809698e-10 
1.21204379866e-10 
1.07320374809e-10 
8.12647726889e-11 
7.89910359345e-11 
7.73567876422e-11 
7.99715849098e-11 
8.49276204917e-11 
2890.64004495 
2842.66761798 
2747.89607996 
2655.31377905 
2563.92930301 
2472.66787279 
2381.27812155 
2289.77894963 
2198.22196774 
2106.64044052 
2015.05013455 
1923.45726012 
1831.86387156 
1740.27050103 
1648.67721998 
1557.08399883 
1465.49080157 
1373.89759291 
1282.30431562 
1190.71085015 
1099.11697195 
1007.52239895 
915.927291216 
824.334305737 
732.755027707 
641.226785529 
549.849330706 
458.843959776 
368.572808188 
279.181034469 
189.041075482 
95.7596579401 
48.1253243249 
5779.06904201 
5682.85314519 
5494.51984362 
5311.09361486 
5128.46066472 
4945.69084874 
4762.71638132 
4579.61815865 
4396.46277672 
4213.28526543 
4030.1005733 
3846.91408324 
3663.72738762 
3480.54081417 
3297.35435832 
3114.16796752 
2930.98160191 
2747.79522912 
2564.60879737 
2381.42218929 
2198.23515583 
2015.04728577 
1831.85828966 
1648.66955127 
1465.48960437 
1282.34981726 
1099.34229377 
916.695798209 
734.881858754 
554.60423693 
375.854465235 
192.421666127 
98.0821964771 
8655.30370677 
8517.62909237 
8242.98074415 
7968.68133917 
7693.94662553 
7419.1219331 
7144.30192435 
6869.50127415 
6594.71279279 
6319.93008797 
6045.14963936 
5770.3699336 
5495.59041794 
5220.81092658 
4946.03142417 
4671.25191067 
4396.47239255 
4121.69287794 
3846.91338022 
3572.13392488 
3297.35455208 
3022.57528573 
2747.79597164 
2473.01571242 
2198.23128022 
1923.43325958 
1648.59893492 
1373.68290435 
1098.64139605 
823.568542123 
549.41750675 
275.813423779 
138.843184576 
10088.1500361 
9933.30589817 
9618.58896574 
9298.12114064 
8976.94348973 
8655.9159365 
8335.11459094 
8014.44517478 
7693.83656343 
7373.25126551 
7052.67348356 
6732.09755372 
6411.52181934 
6090.94594729 
5770.36994814 
5449.79387948 
5129.21778395 
4808.64169573 
4488.06566944 
4167.48982967 
3846.91444292 
3526.339956 
3205.76670983 
2885.19333157 
2564.61096893 
2243.98679433 
1923.22321062 
1602.07841708 
1280.03604276 
956.352667591 
630.659995578 
310.58415168 
153.849873488 
</DataArray>
<DataArray type="Float64" Name="Nodal_sigma_yy" NumberOfComponents="1" format="ascii" >
38.8416765424 
19.5539987977 
0.370944675424 
0.12658643606 
-0.167103253501 
-0.0881156172031 
-0.0454051452308 
-0.0180492240013 
-0.00628529943322 
-0.00173233069802 
-0.000299930908 
4.6692141666e-05 
7.76037196033e-05 
4.83285742234e-05 
2.2912897748e-05 
8.62218195152e-06 
-7.76210356435e-07 
-1.55145509666e-05 
-5.26718491187e-05 
-0.0001421789961 
-0.000322349448311 
-0.000580913945413 
-0.000597359997357 
0.00103514924169 
0.00904972018077 
0.0355400676906 
0.112335525754 
0.282128893773 
0.740312278412 
0.998913367637 
3.88800382954 
-38.2749761025 
-83.4136471148 
35.5858660336 
20.5284876541 
3.09015751534 
0.240502502645 
-0.233836557435 
-0.188555790581 
-0.09986117564 
-0.0428474073703 
-0.0155569324988 
-0.00465344964306 
-0.000983654376626 
-4.537335343e-06 
0.000143448850224 
0.000102784940253 
5.17519498828e-05 
1.97040584169e-05 
-3.36687358526e-06 
-3.98821360648e-05 
-0.000127672615889 
-0.000328171430382 
-0.000702658402389 
-0.0011417263417 
-0.000717331082299 
0.00425246885634 
0.0250714287354 
0.0908465580507 
0.265079979281 
0.656844601277 
1.39453258546 
2.18532041617 
0.639785583416 
-35.9621370145 
-70.6985945001 
26.5956780589 
18.3070522266 
5.85425369222 
0.770958229378 
-0.256231287301 
-0.298877406438 
-0.172392552617 
-0.0777438582643 
-0.0294480092756 
-0.00930566996863 
-0.00221399269338 
-0.000184266155387 
0.000199320550649 
0.000169348964903 
9.04117981406e-05 
3.47951065152e-05 
-8.47712769314e-06 
-7.74640195971e-05 
-0.000237048540427 
-0.000584717464221 
-0.00118649809914 
-0.00172201588791 
-0.000230189384453 
0.0104735041763 
0.0514360018707 
0.174660934714 
0.486351419812 
1.14448047508 
2.16078004171 
2.6212206332 
-3.81508098951 
-27.7633892913 
-45.3935108303 
13.9739899419 
10.2133037738 
4.1175925267 
0.897444322515 
-0.122027541682 
-0.219836612153 
-0.137225999839 
-0.0642133197057 
-0.0250589900014 
-0.00820278464289 
-0.00208513543763 
-0.00025717329363 
0.000128361750757 
0.000129706361143 
7.2624504206e-05 
2.81796892168e-05 
-8.41569081089e-06 
-6.70452340694e-05 
-0.000199079224321 
-0.000476734534239 
-0.000927656137103 
-0.00121447399948 
0.000448370385334 
0.010297588958 
0.046044851161 
0.15010742256 
0.405054515184 
0.912278143853 
1.58384950323 
1.15204218577 
-3.62990034019 
-14.6696389953 
-21.702056762 
4.2462033889e-11 
3.424460715e-11 
2.00728322852e-11 
1.09139364213e-11 
6.33804120298e-12 
6.06448224971e-12 
2.02149408324e-12 
-7.06990022081e-13 
5.67013103137e-12 
-2.7142732506e-12 
-1.43423051213e-11 
-1.85806925401e-11 
-2.72528666301e-11 
-3.5129232856e-11 
-5.05551156493e-11 
-4.59330351532e-11 
-3.86233267591e-11 
-3.70183883547e-11 
-5.60174129305e-12 
1.54365409344e-12 
7.9261042174e-12 
7.73958674927e-12 
-1.23687726727e-11 
4.52509141269e-11 
9.23341403336e-11 
5.79758463459e-11 
4.32986979604e-11 
5.99538196866e-11 
1.284610196e-10 
1.90223170549e-10 
1.34225519588e-10 
1.35013333846e-10 
1.92010851663e-10 
-13.9739899418 
-10.2133037737 
-4.11759252667 
-0.897444322497 
0.122027541689 
0.219836612156 
0.137225999838 
0.064213319703 
0.0250589899962 
0.00820278463156 
0.00208513542276 
0.000257173267617 
-0.000128361786892 
-0.000129706399086 
-7.26245559406e-05 
-2.81797488348e-05 
8.41562527221e-06 
6.70451379339e-05 
0.000199079123485 
0.000476734475209 
0.000927656109935 
0.00121447397532 
-0.000448370395343 
-0.0102975889414 
-0.0460448511449 
-0.150107422568 
-0.405054515158 
-0.912278143779 
-1.58384950315 
-1.15204218564 
3.62990034038 
14.6696389954 
21.7020567621 
-26.5956780589 
-18.3070522265 
-5.85425369219 
-0.770958229367 
0.256231287301 
0.298877406433 
0.172392552615 
0.077743858265 
0.0294480092646 
0.00930566995635 
0.00221399270056 
0.000184266154378 
-0.000199320575675 
-0.000169349000146 
-9.04118611942e-05 
-3.47951985304e-05 
8.47703569207e-06 
7.74639133994e-05 
0.000237048392485 
0.000584717299454 
0.0011864979975 
0.00172201588338 
0.000230189367286 
-0.0104735042906 
-0.0514360019678 
-0.174660934753 
-0.486351419886 
-1.14448047516 
-2.16078004176 
-2.62122063314 
3.81508098966 
27.7633892913 
45.3935108302 
-35.5858660335 
-20.5284876541 
-3.09015751533 
-0.240502502643 
0.233836557431 
0.188555790576 
0.0998611756356 
0.0428474073744 
0.0155569325094 
0.00465344965565 
0.000983654389614 
4.5373295734e-06 
-0.000143448900985 
-0.000102785034386 
-5.17520683445e-05 
-1.97041625256e-05 
3.36680761848e-06 
3.98820943559e-05 
0.000127672594388 
0.000328171409976 
0.000702658407576 
0.0011417263897 
0.000717331043333 
-0.00425246899063 
-0.0250714288255 
-0.0908465581032 
-0.265079979385 
-0.656844601403 
-1.3945325855 
-2.18532041612 
-0.639785583331 
35.9621370145 
70.6985945002 
-38.8416765423 
-19.5539987976 
-0.370944675423 
-0.126586436065 
0.167103253498 
0.0881156171977 
0.045405145221 
0.0180492240037 
0.00628529945459 
0.00173233073053 
0.000299930918572 
-4.66921660518e-05 
-7.76037888386e-05 
-4.83286976305e-05 
-2.29130109233e-05 
-8.6222335085e-06 
7.76208594289e-07 
1.551456171e-05 
5.26719115328e-05 
0.000142179163674 
0.000322349591784 
0.000580913986681 
0.000597359958476 
-0.00103514933923 
-0.00904972031913 
-0.0355400678507 
-0.112335525849 
-0.282128893833 
-0.740312278488 
-0.99891336776 
-3.88800382957 
38.2749761026 
83.4136471151 
</DataArray>
<DataArray type="Float64" Name="Nodal_sigma_xy" NumberOfComponents="1" format="ascii" >
-150.274097196 
-160.446143173 
-171.527496549 
-172.356482992 
-172.114209344 
-171.854189081 
-171.709850688 
-171.645234914 
-171.62075163 
-171.612990032 
-171.611129871 
-171.610966689 
-171.611128053 
-171.611267105 
-171.611342173 
-171.611374693 
-171.61138312 
-171.611367805 
-171.611300542 
-171.611102984 
-171.610618789 
-171.609640467 
-171.608233455 
-171.608104162 
-171.616932996 
-171.659845321 
-171.805203793 
-172.212750465 
-173.212656525 
-175.316557007 
-178.836090419 
-167.261732571 
-153.568745829 
-296.948950993 
-301.636747993 
-307.801500383 
-309.40976705 
-309.442085518 
-309.252728201 
-309.113471642 
-309.043351298 
-309.014350842 
-309.004227956 
-309.001367502 
-309.000846354 
-309.000902837 
-309.001020766 
-309.001096257 
-309.001131428 
-309.001139349 
-309.001117533 
-309.001033972 
-309.000808404 
-309.000302845 
-308.99941185 
-308.99856483 
-309.000516722 
-309.015505895 
-309.073802244 
-309.25083216 
-309.703299052 
-310.66423502 
-312.209114709 
-312.464331219 
-305.021128791 
-298.227649171 
-541.2887799 
-538.796987198 
-536.89985217 
-537.754895006 
-538.048457103 
-538.064327016 
-538.03038904 
-538.00473107 
-537.991802827 
-537.986482082 
-537.984636838 
-537.984120594 
-537.9840293 
-537.984041463 
-537.984063538 
-537.984076339 
-537.984078091 
-537.984065175 
-537.984024517 
-537.983931144 
-537.98376431 
-537.983598382 
-537.983929472 
-537.986622502 
-537.997233246 
-538.029679745 
-538.112600431 
-538.284750371 
-538.513806036 
-538.30353377 
-536.062137898 
-537.316517765 
-540.486329713 
-687.426049005 
-682.738252005 
-676.573499615 
-674.965232949 
-674.932914481 
-675.122271797 
-675.261528357 
-675.331648701 
-675.360649157 
-675.370772042 
-675.373632497 
-675.374153644 
-675.374097161 
-675.373979232 
-675.373903742 
-675.373868571 
-675.37386065 
-675.373882466 
-675.373966027 
-675.374191595 
-675.374697155 
-675.375588149 
-675.376435169 
-675.374483277 
-675.359494104 
-675.301197755 
-675.124167839 
-674.671700948 
-673.71076498 
-672.16588529 
-671.910668781 
-679.353871209 
-686.147350829 
-735.898343 
-730.709882428 
-723.422799108 
-720.883726994 
-720.538876447 
-720.767156883 
-720.979371228 
-721.095302943 
-721.145642712 
-721.1640458 
-721.16959645 
-721.170792119 
-721.170813345 
-721.170649965 
-721.170530747 
-721.170472627 
-721.170460696 
-721.170501844 
-721.170650422 
-721.171034725 
-721.17185259 
-721.173162768 
-721.173907598 
-721.168650832 
-721.138600511 
-721.030795188 
-720.719595342 
-719.967748791 
-718.509731401 
-716.826375451 
-717.789633786 
-726.855231898 
-734.208594745 
-687.426049005 
-682.738252005 
-676.573499615 
-674.965232949 
-674.932914481 
-675.122271797 
-675.261528357 
-675.331648701 
-675.360649157 
-675.370772042 
-675.373632497 
-675.374153644 
-675.374097161 
-675.373979232 
-675.373903742 
-675.373868571 
-675.37386065 
-675.373882466 
-675.373966027 
-675.374191595 
-675.374697155 
-675.375588149 
-675.376435169 
-675.374483277 
-675.359494104 
-675.301197755 
-675.124167839 
-674.671700948 
-673.71076498 
-672.16588529 
-671.910668781 
-679.353871209 
-686.147350829 
-541.2887799 
-538.796987198 
-536.89985217 
-537.754895006 
-538.048457103 
-538.064327016 
-538.03038904 
-538.00473107 
-537.991802827 
-537.986482082 
-537.984636838 
-537.984120594 
-537.9840293 
-537.984041463 
-537.984063538 
-537.984076339 
-537.984078091 
-537.984065175 
-537.984024517 
-537.983931144 
-537.98376431 
-537.983598382 
-537.983929472 
-537.986622502 
-537.997233246 
-538.029679745 
-538.112600431 
-538.284750371 
-538.513806036 
-538.30353377 
-536.062137898 
-537.316517765 
-540.486329713 
-296.948950993 
-301.636747993 
-307.801500383 
-309.40976705 
-309.442085518 
-309.252728201 
-309.113471642 
-309.043351298 
-309.014350842 
-309.004227956 
-309.001367502 
-309.000846354 
-309.000902837 
-309.001020766 
-309.001096257 
-309.001131428 
-309.001139349 
-309.001117533 
-309.001033972 
-309.000808404 
-309.000302845 
-308.99941185 
-308.99856483 
-309.000516722 
-309.015505895 
-309.073802244 
-309.25083216 
-309.703299051 
-310.66423502 
-312.209114709 
-312.464331219 
-305.021128791 
-298.227649171 
-150.274097196 
-160.446143173 
-171.527496549 
-172.356482992 
-172.114209344 
-171.854189081 
-171.709850688 
-171.645234914 
-171.62075163 
-171.612990032 
-171.611129871 
-171.610966689 
-171.611128053 
-171.611267105 
-171.611342173 
-171.611374693 
-171.61138312 
-171.611367805 
-171.611300542 
-171.611102984 
-171.610618789 
-171.609640467 
-171.608233455 
-171.608104162 
-171.616932996 
-171.659845321 
-171.805203793 
-172.212750465 
-173.212656525 
-175.316557007 
-178.836090419 
-167.261732571 
-153.568745829 
</DataArray>
</PointData>
<CellData>
</CellData>
<Points>
<DataArray type="Float64" Name="Points" NumberOfComponents="3" format="ascii">
0.0 -2.0 0.0
0.5 -2.0 0.0
1.0 -2.0 0.0
1.5 -2.0 0.0
2.0 -2.0 0.0
2.5 -2.0 0.0
3.0 -2.0 0.0
3.5 -2.0 0.0
4.0 -2.0 0.0
4.5 -2.0 0.0
5.0 -2.0 0.0
5.5 -2.0 0.0
6.0 -2.0 0.0
6.5 -2.0 0.0
7.0 -2.0 0.0
7.5 -2.0 0.0
8.0 -2.0 0.0
8.5 -2.0 0.0
9.0 -2.0 0.0
9.5 -2.0 0.0
10.0 -2.0 0.0
10.5 -2.0 0.0
11.0 -2.0 0.0
11.5 -2.0 0.0
12.0 -2.0 0.0
12.5 -2.0 0.0
13.0 -2.0 0.0
13.5 -2.0 0.0
14.0 -2.0 0.0
14.5 -2.0 0.0
15.0 -2.0 0.0
15.5 -2.0 0.0
16.0 -2.0 0.0
0.0 -1.5 0.0
0.5 -1.5 0.0
1.0 -1.5 0.0
1.5 -1.5 0.0
2.0 -1.5 0.0
2.5 -1.5 0.0
3.0 -1.5 0.0
3.5 -1.5 0.0
4.0 -1.5 0.0
4.5 -1.5 0.0
5.0 -1.5 0.0
5.5 -1.5 0.0
6.0 -1.5 0.0
6.5 -1.5 0.0
7.0 -1.5 0.0
7.5 -1.5 0.0
8.0 -1.5 0.0
8.5 -1.5 0.0
9.0 -1.5 0.0
9.5 -1.5 0.0
10.0 -1.5 0.0
10.5 -1.5 0.0
11.0 -1.5 0.0
11.5 -1.5 0.0
12.0 -1.5 0.0
12.5 -1.5 0.0
13.0 -1.5 0.0
13.5 -1.5 0.0
14.0 -1.5 0.0
14.5 -1.5 0.0
15.0 -1.5 0.0
15.5 -1.5 0.0
16.0 -1.5 0.0
0.0 -1.0 0.0
0.5 -1.0 0.0
1.0 -1.0 0.0
1.5 -1.0 0.0
2.0 -1.0 0.0
2.5 -1.0 0.0
3.0 -1.0 0.0
3.5 -1.0 0.0
4.0 -1.0 0.0
4.5 -1.0 0.0
5.0 -1.0 0.0
5.5 -1.0 0.0
6.0 -1.0 0.0
6.5 -1.0 0.0
7.0 -1.0 0.0
7.5 -1.0 0.0
8.0 -1.0 0.0
8.5 -1.0 0.0
9.0 -1.0 0.0
9.5 -1.0 0.0
10.0 -1.0 0.0
10.5 -1.0 0.0
11.0 -1.0 0.0
11.5 -1.0 0.0
12.0 -1.0 0.0
12.5 -1.0 0.0
13.0 -1.0 0.0
13.5 -1.0 0.0
14.0 -1.0 0.0
14.5 -1.0 0.0
15.0 -1.0 0.0
15.5 -1.0 0.0
16.0 -1.0 0.0
0.0 -0.5 0.0
0.5 -0.5 0.0
1.0 -0.5 0.0
1.5 -0.5 0.0
2.0 -0.5 0.0
2.5 -0.5 0.0
3.0 -0.5 0.0
3.5 -0.5 0.0
4.0 -0.5 0.0
4.5 -0.5 0.0
5.0 -0.5 0.0
5.5 -0.5 0.0
6.0 -0.5 0.0
6.5 -0.5 0.0
7.0 -0.5 0.0
7.5 -0.5 0.0
8.0 -0.5 0.0
8.5 -0.5 0.0
9.0 -0.5 0.0
9.5 -0.5 0.0
10.0 -0.5 0.0
10.5 -0.5 0.0
11.0 -0.5 0.0
11.5 -0.5 0.0
12.0 -0.5 0.0
12.5 -0.5 0.0
13.0 -0.5 0.0
13.5 -0.5 0.0
14.0 -0.5 0.0
14.5 -0.5 0.0
15.0 -0.5 0.0
15.5 -0.5 0.0
16.0 -0.5 0.0
0.0 0.0 0.0
0.5 0.0 0.0
1.0 0.0 0.0
1.5 0.0 0.0
2.0 0.0 0.0
2.5 0.0 0.0
3.0 0.0 0.0
3.5 0.0 0.0
4.0 0.0 0.0
4.5 0.0 0.0
5.0 0.0 0.0
5.5 0.0 0.0
6.0 0.0 0.0
6.5 0.0 0.0
7.0 0.0 0.0
7.5 0.0 0.0
8.0 0.0 0.0
8.5 0.0 0.0
9.0 0.0 0.0
9.5 0.0 0.0
10.0 0.0 0.0
10.5 0.0 0.0
11.0 0.0 0.0
11.5 0.0 0.0
12.0 0.0 0.0
12.5 0.0 0.0
13.0 0.0 0.0
13.5 0.0 0.0
14.0 0.0 0.0
14.5 0.0 0.0
15.0 0.0 0.0
15.5 0.0 0.0
16.0 0.0 0.0
0.0 0.5 0.0
0.5 0.5 0.0
1.0 0.5 0.0
1.5 0.5 0.0
2.0 0.5 0.0
2.5 0.5 0.0
3.0 0.5 0.0
3.5 0.5 0.0
4.0 0.5 0.0
4.5 0.5 0.0
5.0 0.5 0.0
5.5 0.5 0.0
6.0 0.5 0.0
6.5 0.5 0.0
7.0 0.5 0.0
7.5 0.5 0.0
8.0 0.5 0.0
8.5 0.5 0.0
9.0 0.5 0.0
9.5 0.5 0.0
10.0 0.5 0.0
10.5 0.5 0.0
11.0 0.5 0.0
11.5 0.5 0.0
12.0 0.5 0.0
12.5 0.5 0.0
13.0 0.5 0.0
13.5 0.5 0.0
14.0 0.5 0.0
14.5 0.5 0.0
15.0 0.5 0.0
15.5 0.5 0.0
16.0 0.5 0.0
0.0 1.0 0.0
0.5 1.0 0.0
1.0 1.0 0.0
1.5 1.0 0.0
2.0 1.0 0.0
2.5 1.0 0.0
3.0 1.0 0.0
3.5 1.0 0.0
4.0 1.0 0.0
4.5 1.0 0.0
5.0 1.0 0.0
5.5 1.0 0.0
6.0 1.0 0.0
6.5 1.0 0.0
7.0 1.0 0.0
7.5 1.0 0.0
8.0 1.0 0.0
8.5 1.0 0.0
9.0 1.0 0.0
9.5 1.0 0.0
10.0 1.0 0.0
10.5 1.0 0.0
11.0 1.0 0.0
11.5 1.0 0.0
12.0 1.0 0.0
12.5 1.0 0.0
13.0 1.0 0.0
13.5 1.0 0.0
14.0 1.0 0.0
14.5 1.0 0.0
15.0 1.0 0.0
15.5 1.0 0.0
16.0 1.0 0.0
0.0 1.5 0.0
0.5 1.5 0.0
1.0 1.5 0.0
1.5 1.5 0.0
2.0 1.5 0.0
2.5 1.5 0.0
3.0 1.5 0.0
3.5 1.5 0.0
4.0 1.5 0.0
4.5 1.5 0.0
5.0 1.5 0.0
5.5 1.5 0.0
6.0 1.5 0.0
6.5 1.5 0.0
7.0 1.5 0.0
7.5 1.5 0.0
8.0 1.5 0.0
8.5 1.5 0.0
9.0 1.5 0.0
9.5 1.5 0.0
10.0 1.5 0.0
10.5 1.5 0.0
11.0 1.5 0.0
11.5 1.5 0.0
12.0 1.5 0.0
12.5 1.5 0.0
13.0 1.5 0.0
13.5 1.5 0.0
14.0 1.5 0.0
14.5 1.5 0.0
15.0 1.5 0.0
15.5 1.5 0.0
16.0 1.5 0.0
0.0 2.0 0.0
0.5 2.0 0.0
1.0 2.0 0.0
1.5 2.0 0.0
2.0 2.0 0.0
2.5 2.0 0.0
3.0 2.0 0.0
3.5 2.0 0.0
4.0 2.0 0.0
4.5 2.0 0.0
5.0 2.0 0.0
5.5 2.0 0.0
6.0 2.0 0.0
6.5 2.0 0.0
7.0 2.0 0.0
7.5 2.0 0.0
8.0 2.0 0.0
8.5 2.0 0.0
9.0 2.0 0.0
9.5 2.0 0.0
10.0 2.0 0.0
10.5 2.0 0.0
11.0 2.0 0.0
11.5 2.0 0.0
12.0 2.0 0.0
12.5 2.0 0.0
13.0 2.0 0.0
13.5 2.0 0.0