<?xml version="1.0"?>
<VTKFile type="UnstructuredGrid" version="0.1" byte_order="LittleEndian" compressor="vtkZLibDataCompressor">
<UnstructuredGrid>
<Piece NumberOfPoints="297" NumberOfCells="256">
<PointData>
<DataArray type="Float64" Name="displacement" NumberOfComponents="3" format="ascii" >
0.0 -0.0198  0.
-0.0316902292013 -0.026632661029  0.
-0.0624346842287 -0.0414843681704  0.
-0.092170385329 -0.063920395375  0.
-0.120891424454 -0.0936744403442  0.
-0.148601093503 -0.130483906805  0.
-0.175301458237 -0.174094723111  0.
-0.200993618615 -0.224254357151  0.
-0.22567803164 -0.280710886871  0.
-0.249354863704 -0.343212481538  0.
-0.272024164078 -0.411507305117  0.
-0.293685943102 -0.48534350034  0.
-0.314340200735 -0.564469196351  0.
-0.333986935418 -0.648632515686  0.
-0.352626146045 -0.737581578241  0.
-0.37025783206 -0.831064503016  0.
-0.386881993231 -0.928829408749  0.
-0.402498629495 -1.0306244141  0.
-0.417107740942 -1.13619763764  0.
-0.430709328014 -1.24529719784  0.
-0.44330339208 -1.35767121332  0.
-0.454889936657 -1.47306780387  0.
-0.465468969305 -1.59123509436  0.
-0.475040502419 -1.71192122561  0.
-0.483604544156 -1.83487438021  0.
-0.491161050641 -1.95984283446  0.
-0.497709755834 -2.08657502  0.
-0.503249698579 -2.21481954147  0.
-0.50777798719 -2.34432447889  0.
-0.511287381593 -2.47483614747  0.
-0.513759497396 -2.60608330027  0.
-0.515165810932 -2.737783813  0.
-0.515518518443 -2.8691290716  0.
0.002075390625 -0.0111375  0.
-0.0217832941388 -0.0184360842484  0.
-0.0448208182223 -0.0335450182808  0.
-0.0671088407517 -0.0562502479563  0.
-0.0886438282793 -0.0862688928562  0.
-0.109423959524 -0.123343073819  0.
-0.129448579017 -0.167218383251  0.
-0.148717545076 -0.217642491162  0.
-0.167230842974 -0.274363488173  0.
-0.184988481443 -0.337129553402  0.
-0.201990468739 -0.405688849967  0.
-0.218236809375 -0.479789519579  0.
-0.233727505327 -0.559179690581  0.
-0.248462557327 -0.643607485129  0.
-0.262441965598 -0.732821022967  0.
-0.275665730191 -0.82656842304  0.
-0.288133851114 -0.924597804078  0.
-0.299846328376 -1.02665728474  0.
-0.310803162005 -1.1324949836  0.
-0.321004352048 -1.24185901914  0.
-0.330449898525 -1.35449750988  0.
-0.339139801213 -1.47015857533  0.
-0.347074058898 -1.58859033941  0.
-0.354252667287 -1.70954094047  0.
-0.360675614111 -1.83275855606  0.
-0.366342869588 -1.95799145217  0.
-0.371254374452 -2.08498806138  0.
-0.375410047674 -2.21349696872  0.
-0.37880993671 -2.34326662082  0.
-0.381455204161 -2.47404217399  0.
-0.383351602261 -2.60556215345  0.
-0.384526865186 -2.73749613409  0.
-0.384882699462 -2.86962167328  0.
0.002371875 -0.00495  0.
-0.0135463004036 -0.0125287142703  0.
-0.0289243511276 -0.0278742829497  0.
-0.0437810224611 -0.0507728561982  0.
-0.0581341675666 -0.0809810160248  0.
-0.0719853591832 -0.118243391296  0.
-0.0853340703695 -0.162307121916  0.
-0.0981796462196 -0.212919879293  0.
-0.110521714291 -0.269829678014  0.
-0.122360107162 -0.33278461493  0.
-0.133694761544 -0.401532810985  0.
-0.144525657475 -0.475822389231  0.
-0.15485279022 -0.555401471238  0.
-0.164676159395 -0.640018177107  0.
-0.173995765433 -0.729420626136  0.
-0.1828116087 -0.823356937267  0.
-0.191123689379 -0.921575229307  0.
-0.198932007507 -1.02382362101  0.
-0.206236562937 -1.12985023113  0.
-0.213037355168 -1.23940317844  0.
-0.219334382942 -1.35223058195  0.
-0.225127643702 -1.46808056143  0.
-0.230417133721 -1.58670123884  0.
-0.235202852433 -1.70784074145  0.
-0.239484822184 -1.83124720679  0.
-0.243263153247 -1.95666878744  0.
-0.246538221121 -2.08385362932  0.
-0.249311075232 -2.21254978512  0.
-0.25158422432 -2.34250462453  0.
-0.253362393872 -2.47346389962  0.
-0.254652314053 -2.6051640209  0.
-0.255432050217 -2.73735438876  0.
-0.255661643823 -2.86987799787  0.
0.001482421875 -0.0012375  0.
-0.00648006775382 -0.00897260395111  0.
-0.0141725127615 -0.0244623929682  0.
-0.02160315166 -0.0474863543298  0.
-0.0287790176779 -0.0778091264828  0.
-0.0357038029413 -0.115184296894  0.
-0.0423776874163 -0.159360719177  0.
-0.0488002659143 -0.210086460755  0.
-0.0549712219978 -0.267109443578  0.
-0.0608903943937 -0.330177666528  0.
-0.0665577161477 -0.399039190282  0.
-0.0719731638363 -0.473442110747  0.
-0.0771367308223 -0.553134539035  0.
-0.082048415887 -0.637864591909  0.
-0.0867082191551 -0.727380387853  0.
-0.0911161408942 -0.821430045734  0.
-0.0952721812623 -0.919761684453  0.
-0.0991763402801 -1.02212342291  0.
-0.102828617784 -1.12826338008  0.
-0.106229013264 -1.23792967517  0.
-0.10937752556 -1.35087042777  0.
-0.112274152627 -1.46683375762  0.
-0.114918892551 -1.58556778276  0.
-0.117311749945 -1.70682061184  0.
-0.119452759665 -1.83034032051  0.
-0.121342056791 -1.95587488891  0.
-0.122980050192 -2.08317207211  0.
-0.124367775116 -2.21197915164  0.
-0.125507342668 -2.3420428734  0.
-0.126401643389 -2.47310972848  0.
-0.12704809092 -2.60493273707  0.
-0.127434288376 -2.73729070466  0.
-0.127548372463 -2.87000276008  0.
0.0 0.0  0.
8.21712971803e-17 -0.00778588823262  0.
1.70238039572e-16 -0.0233236360634  0.
2.63275775074e-16 -0.0463902748453  0.
3.57002302138e-16 -0.0767520109002  0.
4.52059383531e-16 -0.114164734105  0.
5.47715717086e-16 -0.15837866987  0.
6.41441174089e-16 -0.209142023948  0.
7.37503703195e-16 -0.266202712376  0.
8.31183569077e-16 -0.329308687861  0.
9.26184152927e-16 -0.398207984315  0.
1.02698939022e-15 -0.472648684626  0.
1.1198267459e-15 -0.552378894859  0.
1.20983017573e-15 -0.637146730093  0.
1.29426790347e-15 -0.726700308382  0.
1.38080827874e-15 -0.82078774854  0.
1.47381785563e-15 -0.919157169504  0.
1.57267483703e-15 -1.02155669024  0.
1.64684758254e-15 -1.12773442984  0.
1.68895572128e-15 -1.23743850769  0.
1.75311483581e-15 -1.35041704362  0.
1.83934380666e-15 -1.46641815724  0.
1.96078621701e-15 -1.58518996444  0.
2.04707367308e-15 -1.70648056445  0.
2.1271373552e-15 -1.83003800221  0.
2.18492357807e-15 -1.95561017742  0.
2.20504639303e-15 -2.0829446548  0.
2.21903696322e-15 -2.21178842741  0.
2.267006794e-15 -2.34188787422  0.
2.29990894298e-15 -2.47299133273  0.
2.29594706382e-15 -2.60485796524  0.
2.33969823439e-15 -2.73727125368  0.
2.34773370573e-15 -2.87004104201  0.
-0.001482421875 -0.0012375  0.
0.00648006775382 -0.00897260395111  0.
0.0141725127615 -0.0244623929682  0.
0.02160315166 -0.0474863543298  0.
0.0287790176779 -0.0778091264828  0.
0.0357038029413 -0.115184296894  0.
0.0423776874163 -0.159360719177  0.
0.0488002659143 -0.210086460755  0.
0.0549712219978 -0.267109443578  0.
0.0608903943937 -0.330177666528  0.
0.0665577161477 -0.399039190282  0.
0.0719731638363 -0.473442110747  0.
0.0771367308223 -0.553134539035  0.
0.082048415887 -0.637864591909  0.
0.0867082191551 -0.727380387853  0.
0.0911161408942 -0.821430045734  0.
0.0952721812623 -0.919761684453  0.
0.0991763402801 -1.02212342291  0.
0.102828617784 -1.12826338008  0.
0.106229013264 -1.23792967517  0.
0.10937752556 -1.35087042777  0.
0.112274152627 -1.46683375762  0.
0.114918892551 -1.58556778276  0.
0.117311749945 -1.70682061184  0.
0.119452759665 -1.83034032051  0.
0.121342056791 -1.95587488891  0.
0.122980050192 -2.08317207211  0.
0.124367775116 -2.21197915164  0.
0.125507342668 -2.3420428734  0.
0.126401643389 -2.47310972848  0.
0.12704809092 -2.60493273707  0.
0.127434288376 -2.73729070466  0.
0.127548372463 -2.87000276008  0.
-0.002371875 -0.00495  0.
0.0135463004036 -0.0125287142703  0.
0.0289243511276 -0.0278742829497  0.
0.0437810224611 -0.0507728561982  0.
0.0581341675666 -0.0809810160248  0.
0.0719853591832 -0.118243391296  0.
0.0853340703695 -0.162307121916  0.
0.0981796462196 -0.212919879293  0.
0.110521714291 -0.269829678014  0.
0.122360107162 -0.33278461493  0.
0.133694761544 -0.401532810985  0.
0.144525657475 -0.475822389231  0.
0.15485279022 -0.555401471238  0.
0.164676159395 -0.640018177107  0.
0.173995765433 -0.729420626136  0.
0.1828116087 -0.823356937267  0.
0.191123689379 -0.921575229307  0.
0.198932007507 -1.02382362101  0.
0.206236562937 -1.12985023113  0.
0.213037355168 -1.23940317844  0.
0.219334382942 -1.35223058195  0.
0.225127643702 -1.46808056143  0.
0.230417133721 -1.58670123884  0.
0.235202852433 -1.70784074145  0.
0.239484822184 -1.83124720679  0.
0.243263153247 -1.95666878744  0.
0.246538221121 -2.08385362932  0.
0.249311075232 -2.21254978512  0.
0.25158422432 -2.34250462453  0.
0.253362393872 -2.47346389962  0.
0.254652314053 -2.6051640209  0.
0.255432050217 -2.73735438876  0.
0.255661643823 -2.86987799787  0.
-0.002075390625 -0.0111375  0.
0.0217832941388 -0.0184360842484  0.
0.0448208182223 -0.0335450182808  0.
0.0671088407517 -0.0562502479563  0.
0.0886438282793 -0.0862688928562  0.
0.109423959524 -0.123343073819  0.
0.129448579017 -0.167218383251  0.
0.148717545076 -0.217642491162  0.
0.167230842974 -0.274363488173  0.
0.184988481443 -0.337129553402  0.
0.201990468739 -0.405688849967  0.
0.218236809375 -0.479789519579  0.
0.233727505327 -0.559179690581  0.
0.248462557327 -0.643607485129  0.
0.262441965598 -0.732821022967  0.
0.275665730191 -0.82656842304  0.
0.288133851114 -0.924597804078  0.
0.299846328376 -1.02665728474  0.
0.310803162005 -1.1324949836  0.
0.321004352048 -1.24185901914  0.
0.330449898525 -1.35449750988  0.
0.339139801213 -1.47015857533  0.
0.347074058898 -1.58859033941  0.
0.354252667287 -1.70954094047  0.
0.360675614111 -1.83275855606  0.
0.366342869588 -1.95799145217  0.
0.371254374452 -2.08498806138  0.
0.375410047674 -2.21349696872  0.
0.37880993671 -2.34326662082  0.
0.381455204161 -2.47404217399  0.
0.383351602261 -2.60556215345  0.
0.384526865186 -2.73749613409  0.
0.384882699462 -2.86962167328  0.
0.0 -0.0198  0.
0.0316902292013 -0.026632661029  0.
0.0624346842287 -0.0414843681704  0.
0.092170385329 -0.063920395375  0.
0.120891424454 -0.0936744403442  0.
0.148601093503 -0.130483906805  0.
0.175301458237 -0.174094723111  0.
0.200993618615 -0.224254357151  0.
0.22567803164 -0.280710886871  0.
0.249354863704 -0.343212481538  0.
0.272024164078 -0.411507305117  0.
0.293685943102 -0.48534350034  0.
0.314340200735 -0.564469196351  0.
0.333986935418 -0.648632515686  0.
0.352626146045 -0.737581578241  0.
0.37025783206 -0.831064503016  0.
0.386881993231 -0.928829408749  0.
0.402498629495 -1.0306244141  0.
0.417107740942 -1.13619763764  0.
0.430709328014 -1.24529719784  0.
0.44330339208 -1.35767121332  0.
0.454889936657 -1.47306780387  0.
0.465468969305 -1.59123509436  0.
0.475040502419 -1.71192122561  0.
0.483604544156 -1.83487438021  0.
0.491161050641 -1.95984283446  0.
0.497709755834 -2.08657502  0.
0.503249698579 -2.21481954147  0.
0.50777798719 -2.34432447889  0.
0.511287381593 -2.47483614747  0.
0.513759497396 -2.60608330027  0.
0.515165810932 -2.737783813  0.
0.515518518443 -2.8691290716  0.
</DataArray>
<DataArray type="Float64" Name="Nodal_sigma_xx" NumberOfComponents="1" format="ascii" >
-55484.8251988 
-54633.18244 
-52902.2393116 
-51139.6662736 
-49373.1891936 
-47607.5376508 
-45843.1302502 
-44079.4484613 
-42316.1010989 
-40552.8819603 
-38789.7041596 
-37026.5365455 
-35263.3700064 
-33500.2027101 
-31737.0347148 
-29973.8663372 
-28210.6978118 
-26447.5293265 
-24684.3611819 
-22921.1940632 
-21158.0294361 
-19394.869758 
-17631.7169041 
-15868.5633236 
-14105.3603291 
-12341.9273688 
-10577.7276584 
-8811.43129394 
-7040.1982352 
-5259.93967175 
-3468.62997568 
-1708.21283424 
-846.174304184 
-47604.1703873 
-46846.9600081 
-45336.3940929 
-43827.7473655 
-42316.7064405 
-40805.1706321 
-39293.660584 
-37782.2570079 
-36270.9203604 
-34759.6154839 
-33248.3230165 
-31737.0346348 
-30225.7472987 
-28714.4600962 
-27203.172833 
-25691.8855087 
-24180.598159 
-22669.3108287 
-21158.0235912 
-19646.7365869 
-18135.4500365 
-16624.1640715 
-15112.877844 
-13601.5864183 
-12090.2720412 
-10578.8829277 
-9067.29414206 
-7555.2559739 
-6042.5276783 
-4529.62698168 
-3021.79628713 
-1516.97383079 
-763.637515168 
-31784.8797311 
-31255.6922986 
-30219.8591399 
-29211.0148818 
-28206.533656 
-27201.2996681 
-26194.9400973 
-25187.8998726 
-24180.545272 
-23173.0689599 
-22165.5531531 
-21158.0274578 
-20150.5006319 
-19142.974478 
-18135.4489708 
-17127.9238214 
-16120.3988105 
-15112.8737601 
-14105.3483856 
-13097.8220411 
-12090.2933571 
-11082.7600717 
-10075.2205931 
-9067.68253196 
-8060.19282401 
-7052.92399492 
-6046.38261575 
-5041.82689015 
-4041.85022315 
-3050.32330311 
-2067.19955879 
-1058.3191637 
-539.452080624 
-15898.5202472 
-15634.6718989 
-15113.4284398 
-14604.2257848 
-14101.6111666 
-13599.6733004 
-13097.0296686 
-12593.784223 
-12090.2208226 
-11586.5224229 
-11082.77574 
-10579.0149307 
-10075.2512936 
-9571.48775567 
-9067.72470991 
-8563.96199359 
-8060.19940862 
-7556.43676102 
-7052.67373591 
-6548.90967581 
-6045.14334574 
-5541.37319425 
-5037.60010169 
-4533.83868155 
-4030.15265239 
-3526.74732041 
-3024.17131888 
-2523.64177877 
-2027.15044504 
-1535.49568958 
-1039.72591515 
-526.67811867 
-264.689283787 
1.78260961547e-10 
1.81444193004e-10 
1.87583282241e-10 
1.90311766346e-10 
1.89402271644e-10 
1.86219040188e-10 
1.8462742446e-10 
1.82808435056e-10 
1.90993887372e-10 
2.04181560548e-10 
1.93494997802e-10 
1.85536919162e-10 
1.83263182407e-10 
1.74850356416e-10 
1.61435309565e-10 
1.47792889038e-10 
1.65755409398e-10 
1.80079950951e-10 
1.8462742446e-10 
1.90539140021e-10 
1.85536919162e-10 
1.81216819328e-10 
1.35401023726e-10 
1.14823706099e-10 
8.69135874382e-11 
4.2462033889e-11 
5.50244294573e-11 
8.76525518834e-11 
1.40403244586e-11 
-5.67865754419e-11 
3.52713414031e-11 
8.13997758087e-11 
6.32951469015e-11 
15898.5202472 
15634.6718989 
15113.4284398 
14604.2257848 
14101.6111666 
13599.6733004 
13097.0296686 
12593.784223 
12090.2208226 
11586.5224229 
11082.77574 
10579.0149307 
10075.2512936 
9571.48775567 
9067.72470991 
8563.9619936 
8060.19940862 
7556.43676102 
7052.67373591 
6548.90967581 
6045.14334574 
5541.37319425 
5037.60010169 
4533.83868155 
4030.15265239 
3526.74732041 
3024.17131888 
2523.64177877 
2027.15044504 
1535.49568958 
1039.72591515 
526.678118671 
264.689283787 
31784.8797311 
31255.6922986 
30219.8591399 
29211.0148818 
28206.533656 
27201.2996681 
26194.9400973 
25187.8998726 
24180.545272 
23173.0689599 
22165.5531531 
21158.0274578 
20150.5006319 
19142.974478 
18135.4489708 
17127.9238214 
16120.3988105 
15112.8737601 
14105.3483856 
13097.8220411 
12090.2933571 
11082.7600717 
10075.2205931 
9067.68253196 
8060.19282401 
7052.92399493 
6046.38261575 
5041.82689015 
4041.85022315 
3050.32330311 
2067.19955879 
1058.3191637 
539.452080624 
47604.1703873 
46846.9600081 
45336.3940929 
43827.7473655 
42316.7064405 
40805.1706321 
39293.660584 
37782.2570079 
36270.9203604 
34759.6154839 
33248.3230165 
31737.0346348 
30225.7472987 
28714.4600962 
27203.172833 
25691.8855087 
24180.598159 
22669.3108287 
21158.0235912 
19646.7365869 
18135.4500365 
16624.1640715 
15112.877844 
13601.5864183 
12090.2720412 
10578.8829277 
9067.29414206 
7555.2559739 
6042.5276783 
4529.62698168 
3021.79628713 
1516.97383079 
763.637515169 
55484.8251988 
54633.18244 
52902.2393116 
51139.6662736 
49373.1891936 
47607.5376508 
45843.1302502 
44079.4484613 
42316.1010989 
40552.8819603 
38789.7041596 
37026.5365455 
35263.3700064 
33500.2027101 
31737.0347148 
29973.8663372 
28210.6978118 
26447.5293265 
24684.3611819 
22921.1940632 
21158.0294361 
19394.869758 
17631.7169041 
15868.5633236 
14105.3603291 
12341.9273688 
10577.7276584 
8811.43129394 
7040.1982352 
5259.93967175 
3468.62997568 
1708.21283424 
846.174304184 
</DataArray>
<DataArray type="Float64" Name="Nodal_sigma_yy" NumberOfComponents="1" format="ascii" >
213.629220974 
107.546993382 
2.04019571471 
0.696225398329 
-0.919067894198 
-0.4846358946 
-0.249728298743 
-0.0992707319647 
-0.0345691468156 
-0.00952781879732 
-0.00164961998598 
0.000256806800735 
0.000426820601206 
0.000265807435881 
0.00012602112929 
4.74220591968e-05 
-4.26910719398e-06 
-8.53298820402e-05 
-0.000289695311267 
-0.000781985115736 
-0.0017729222543 
-0.00319502634215 
-0.00328547967365 
0.00569332077839 
0.0497734610932 
0.195470372861 
0.617845392201 
1.55170891655 
4.07171753192 
5.49402352189 
21.3840210622 
-210.512368564 
-458.775059131 
195.722263176 
112.906682093 
16.9958663335 
1.32276376447 
-1.28610106583 
-1.03705684813 
-0.549236465961 
-0.235660740487 
-0.0855631287143 
-0.025593973035 
-0.00541009912274 
-2.49554105949e-05 
0.000788968755501 
0.000565317465316 
0.000284636089305 
0.000108372685645 
-1.85174250191e-05 
-0.000219351402961 
-0.000702199249076 
-0.00180494289316 
-0.00386462107633 
-0.00627949444237 
-0.00394532051325 
0.0233885788555 
0.137892857944 
0.499656069106 
1.45793988618 
3.61264530784 
7.66992922083 
12.019262289 
3.51882070863 
-197.791753579 
-388.84226975 
146.276229318 
100.688787242 
32.1983953057 
4.24027026132 
-1.40927208012 
-1.64382573531 
-0.948159039282 
-0.42759122038 
-0.161964050998 
-0.0511811848485 
-0.0121769598884 
-0.00101346392557 
0.00109626303259 
0.000931419425001 
0.000497265228603 
0.000191373621703 
-4.66236832608e-05 
-0.000426051789361 
-0.00130376664157 
-0.00321594549087 
-0.0065257390458 
-0.00947108707055 
-0.00126604138828 
0.0576042731698 
0.282898010355 
0.960635140721 
2.67493280902 
6.2946426135 
11.88429023 
14.416713483 
-20.982945442 
-152.698641102 
-249.664309566 
76.8569446767 
56.1731707531 
22.6467588957 
4.93594377354 
-0.671151479257 
-1.2091013668 
-0.754742999047 
-0.35317325833 
-0.137824445007 
-0.0451153155407 
-0.0114682449274 
-0.00141445310374 
0.000705989703121 
0.000713385100482 
0.000399435012696 
0.000154988533836 
-4.62860843697e-05 
-0.000368748562593 
-0.00109493538592 
-0.00262203938003 
-0.00510210850053 
-0.00667960733319 
0.00246603675529 
0.0566367392416 
0.253246681467 
0.825590824051 
2.22779983344 
5.01752979125 
8.71117226759 
6.33623202145 
-19.9644518708 
-80.6830144735 
-119.361312191 
4.30304680776e-11 
3.37081473845e-11 
1.95257143787e-11 
1.15392140287e-11 
4.83169060317e-12 
-2.8990143619e-12 
-7.02016222931e-12 
-1.11981535156e-11 
8.66862137627e-12 
3.3580249692e-11 
-1.13047349259e-11 
-1.37063693728e-11 
1.35003119794e-11 
-3.08943981508e-11 
-6.26130258752e-11 
-6.65920651954e-11 
-3.34665628543e-11 
-1.53477230924e-12 
8.30766566651e-11 
1.40360612022e-10 
8.33892954688e-11 
-2.88942203497e-11 
-1.81405113153e-10 
-1.3211121086e-10 
-5.7184479374e-11 
-9.82609549283e-11 
-9.45501454908e-11 
-2.92619262154e-11 
-1.06840758463e-10 
-1.83567827605e-10 
1.05835340491e-11 
1.35443656291e-10 
1.30008004362e-10 
-76.8569446767 
-56.173170753 
-22.6467588957 
-4.93594377352 
0.671151479255 
1.20910136679 
0.754742999045 
0.353173258314 
0.137824444993 
0.045115315547 
0.0114682448919 
0.00141445307889 
-0.000705989720259 
-0.000713385163493 
-0.000399435032165 
-0.000154988524599 
4.62861708996e-05 
0.000368748675939 
0.0010949354325 
0.00262203942631 
0.00510210845818 
0.00667960711188 
-0.00246603704515 
-0.056636739481 
-0.253246681723 
-0.825590824417 
-2.22779983363 
-5.01752979113 
-8.71117226774 
-6.33623202169 
19.964451871 
80.6830144736 
119.361312191 
-146.276229318 
-100.688787242 
-32.1983953056 
-4.24027026131 
1.40927208011 
1.64382573531 
0.948159039299 
0.427591220395 
0.161964050983 
0.0511811848091 
0.0121769598355 
0.00101346382883 
-0.00109626311598 
-0.000931419457345 
-0.000497265339163 
-0.000191373728001 
4.66237478918e-05 
0.000426051774866 
0.00130376633359 
0.00321594514793 
0.00652573885412 
0.00947108704008 
0.0012660414304 
-0.0576042732538 
-0.282898010523 
-0.960635140943 
-2.67493280901 
-6.29464261308 
-11.8842902297 
-14.4167134827 
20.9829454424 
152.698641102 
249.664309566 
-195.722263176 
-112.906682093 
-16.9958663335 
-1.32276376446 
1.28610106582 
1.03705684812 
0.549236465959 
0.235660740499 
0.0855631287106 
0.0255939730109 
0.0054100990784 
2.49552906553e-05 
-0.000788968860775 
-0.000565317526707 
-0.000284636243236 
-0.000108372798877 
1.8517459921e-05 
0.000219351361238 
0.000702199027842 
0.00180494264362 
0.00386462101653 
0.00627949476973 
0.00394532084528 
-0.0233885788102 
-0.137892857852 
-0.499656068909 
-1.45793988591 
-3.61264530733 
-7.6699292204 
-12.0192622889 
-3.51882070832 
197.79175358 
388.842269751 
-213.629220974 
-107.546993382 
-2.04019571471 
-0.696225398305 
0.919067894199 
0.484635894571 
0.249728298714 
0.0992707319474 
0.0345691467933 
0.00952781877322 
0.00164961995461 
-0.000256806869402 
-0.000426820706252 
-0.000265807558208 
-0.000126021129745 
-4.74219214084e-05 
4.26928772868e-06 
8.53300573453e-05 
0.000289695411766 
0.000781985114372 
0.00177292226658 
0.00319502667298 
0.00328548003654 
-0.00569332073428 
-0.0497734609726 
-0.195470372558 
-0.617845391861 
-1.55170891609 
-4.07171753187 
-5.49402352245 
-21.384021062 
210.512368565 
458.775059133 
</DataArray>
<DataArray type="Float64" Name="Nodal_sigma_xy" NumberOfComponents="1" format="ascii" >
-826.507534587 
-882.453787455 
-943.40123102 
-947.960656457 
-946.628151393 
-945.198039948 
-944.404178786 
-944.048792028 
-943.914133967 
-943.871445176 
-943.861214291 
-943.860316791 
-943.861204293 
-943.861969076 
-943.862381951 
-943.862560811 
-943.862607162 
-943.862522926 
-943.862152983 
-943.861066412 
-943.858403343 
-943.853022571 
-943.845284003 
-943.844572891 
-943.893131477 
-944.129149268 
-944.928620864 
-947.170127557 
-952.669610887 
-964.241063541 
-983.598497302 
-919.939529139 
-844.628102062 
-1633.21923047 
-1659.00211397 
-1692.90825211 
-1701.75371878 
-1701.93147035 
-1700.89000511 
-1700.12409403 
-1699.73843214 
-1699.57892963 
-1699.52325376 
-1699.50752126 
-1699.50465495 
-1699.50496561 
-1699.50561422 
-1699.50602941 
-1699.50622286 
-1699.50626642 
-1699.50614643 
-1699.50568685 
-1699.50444622 
-1699.50166565 
-1699.49676518 
-1699.49210657 
-1699.50284197 
-1699.58528242 
-1699.90591234 
-1700.87957688 
-1703.36814478 
-1708.65329261 
-1717.1501309 
-1718.5538217 
-1677.61620835 
-1640.25207044 
-2977.08828945 
-2963.38342959 
-2952.94918694 
-2957.65192253 
-2959.26651407 
-2959.35379859 
-2959.16713973 
-2959.02602089 
-2958.95491555 
-2958.92565146 
-2958.91550261 
-2958.91266327 
-2958.91216115 
-2958.91222805 
-2958.91234946 
-2958.91241987 
-2958.9124295 
-2958.91235846 
-2958.91213484 
-2958.9116213 
-2958.9107037 
-2958.9097911 
-2958.9116121 
-2958.92642376 
-2958.98478285 
-2959.1632386 
-2959.61930237 
-2960.56612704 
-2961.8259332 
-2960.66943574 
-2948.34175844 
-2955.24084771 
-2972.67481342 
-3780.84326953 
-3755.06038603 
-3721.15424789 
-3712.30878122 
-3712.13102965 
-3713.17249489 
-3713.93840597 
-3714.32406786 
-3714.48357037 
-3714.53924624 
-3714.55497874 
-3714.55784505 
-3714.55753439 
-3714.55688578 
-3714.55647058 
-3714.55627714 
-3714.55623358 
-3714.55635357 
-3714.55681315 
-3714.55805378 
-3714.56083435 
-3714.56573482 
-3714.57039343 
-3714.55965803 
-3714.47721758 
-3714.15658766 
-3713.18292312 
-3710.69435521 
-3705.40920739 
-3696.9123691 
-3695.5086783 
-3736.44629165 
-3773.81042956 
-4047.4408865 
-4018.90435336 
-3978.8253951 
-3964.86049847 
-3962.96382047 
-3964.21936286 
-3965.38654176 
-3966.02416619 
-3966.30103492 
-3966.40225191 
-3966.43278048 
-3966.43935666 
-3966.4394734 
-3966.43857481 
-3966.43791912 
-3966.43759945 
-3966.43753383 
-3966.43776014 
-3966.43857733 
-3966.44069099 
-3966.44518925 
-3966.45239523 
-3966.45649179 
-3966.42757958 
-3966.26230281 
-3965.66937354 
-3963.95777439 
-3959.82261835 
-3951.80352271 
-3942.54506498 
-3947.84298582 
-3997.70377544 
-4038.1472711 
-3780.84326953 
-3755.06038603 
-3721.15424789 
-3712.30878122 
-3712.13102965 
-3713.17249489 
-3713.93840597 
-3714.32406786 
-3714.48357037 
-3714.53924624 
-3714.55497874 
-3714.55784505 
-3714.55753439 
-3714.55688578 
-3714.55647058 
-3714.55627714 
-3714.55623358 
-3714.55635357 
-3714.55681315 
-3714.55805378 
-3714.56083435 
-3714.56573482 
-3714.57039343 
-3714.55965803 
-3714.47721758 
-3714.15658766 
-3713.18292312 
-3710.69435521 
-3705.40920739 
-3696.9123691 
-3695.5086783 
-3736.44629165 
-3773.81042956 
-2977.08828945 
-2963.38342959 
-2952.94918694 
-2957.65192253 
-2959.26651407 
-2959.35379859 
-2959.16713973 
-2959.02602089 
-2958.95491555 
-2958.92565146 
-2958.91550261 
-2958.91266327 
-2958.91216115 
-2958.91222805 
-2958.91234946 
-2958.91241987 
-2958.9124295 
-2958.91235846 
-2958.91213484 
-2958.9116213 
-2958.9107037 
-2958.9097911 
-2958.9116121 
-2958.92642376 
-2958.98478285 
-2959.1632386 
-2959.61930237 
-2960.56612704 
-2961.8259332 
-2960.66943574 
-2948.34175844 
-2955.24084771 
-2972.67481342 
-1633.21923047 
-1659.00211397 
-1692.90825211 
-1701.75371878 
-1701.93147035 
-1700.89000511 
-1700.12409403 
-1699.73843214 
-1699.57892963 
-1699.52325376 
-1699.50752126 
-1699.50465495 
-1699.50496561 
-1699.50561422 
-1699.50602941 
-1699.50622286 
-1699.50626642 
-1699.50614643 
-1699.50568685 
-1699.50444622 
-1699.50166565 
-1699.49676518 
-1699.49210657 
-1699.50284197 
-1699.58528242 
-1699.90591234 
-1700.87957688 
-1703.36814478 
-1708.65329261 
-1717.1501309 
-1718.5538217 
-1677.61620835 
-1640.25207044 
-826.507534587 
-882.453787455 
-943.40123102 
-947.960656457 
-946.628151393 
-945.198039948 
-944.404178786 
-944.048792028 
-943.914133967 
-943.871445176 
-943.861214291 
-943.860316791 
-943.861204293 
-943.861969076 
-943.862381951 
-943.862560811 
-943.862607162 
-943.862522926 
-943.862152983 
-943.861066412 
-943.858403343 
-943.853022571 
-943.845284004 
-943.844572891 
-943.893131477 
-944.129149268 
-944.928620864 
-947.170127557 
-952.669610887 
-964.241063541 
-983.598497302 
-919.939529139 
-844.628102062 
</DataArray>
</PointData>
<CellData>
</CellData>
<Points>
<DataArray type="Float64" Name="Points" NumberOfComponents="3" format="ascii">
0.0 -2.0 0.0
0.5 -2.0 0.0
1.0 -2.0 0.0
1.5 -2.0 0.0
2.0 -2.0 0.0
2.5 -2.0 0.0
3.0 -2.0 0.0
3.5 -2.0 0.0
4.0 -2.0 0.0
4.5 -2.0 0.0
5.0 -2.0 0.0
5.5 -2.0 0.0
6.0 -2.0 0.0
6.5 -2.0 0.0
7.0 -2.0 0.0
7.5 -2.0 0.0
8.0 -2.0 0.0
8.5 -2.0 0.0
9.0 -2.0 0.0
9.5 -2.0 0.0
10.0 -2.0 0.0
10.5 -2.0 0.0
11.0 -2.0 0.0
11.5 -2.0 0.0
12.0 -2.0 0.0
12.5 -2.0 0.0
13.0 -2.0 0.0
13.5 -2.0 0.0
14.0 -2.0 0.0
14.5 -2.0 0.0
15.0 -2.0 0.0
15.5 -2.0 0.0
16.0 -2.0 0.0
0.0 -1.5 0.0
0.5 -1.5 0.0
1.0 -1.5 0.0
1.5 -1.5 0.0
2.0 -1.5 0.0
2.5 -1.5 0.0
3.0 -1.5 0.0
3.5 -1.5 0.0
4.0 -1.5 0.0
4.5 -1.5 0.0
5.0 -1.5 0.0
5.5 -1.5 0.0
6.0 -1.5 0.0
6.5 -1.5 0.0
7.0 -1.5 0.0
7.5 -1.5 0.0
8.0 -1.5 0.0
8.5 -1.5 0.0
9.0 -1.5 0.0
9.5 -1.5 0.0
10.0 -1.5 0.0
10.5 -1.5 0.0
11.0 -1.5 0.0
11.5 -1.5 0.0
12.0 -1.5 0.0
12.5 -1.5 0.0
13.0 -1.5 0.0
13.5 -1.5 0.0
14.0 -1.5 0.0
14.5 -1.5 0.0
15.0 -1.5 0.0
15.5 -1.5 0.0
16.0 -1.5 0.0
0.0 -1.0 0.0
0.5 -1.0 0.0
1.0 -1.0 0.0
1.5 -1.0 0.0
2.0 -1.0 0.0
2.5 -1.0 0.0
3.0 -1.0 0.0
3.5 -1.0 0.0
4.0 -1.0 0.0
4.5 -1.0 0.0
5.0 -1.0 0.0
5.5 -1.0 0.0
6.0 -1.0 0.0
6.5 -1.0 0.0
7.0 -1.0 0.0
7.5 -1.0 0.0
8.0 -1.0 0.0
8.5 -1.0 0.0
9.0 -1.0 0.0
9.5 -1.0 0.0
10.0 -1.0 0.0
10.5 -1.0 0.0
11.0 -1.0 0.0
11.5 -1.0 0.0
12.0 -1.0 0.0
12.5 -1.0 0.0
13.0 -1.0 0.0
13.5 -1.0 0.0
14.0 -1.0 0.0
14.5 -1.0 0.0
15.0 -1.0 0.0
15.5 -1.0 0.0
16.0 -1.0 0.0
0.0 -0.5 0.0
0.5 -0.5 0.0
1.0 -0.5 0.0
1.5 -0.5 0.0
2.0 -0.5 0.0
2.5 -0.5 0.0
3.0 -0.5 0.0
3.5 -0.5 0.0
4.0 -0.5 0.0
4.5 -0.5 0.0
5.0 -0.5 0.0
5.5 -0.5 0.0
6.0 -0.5 0.0
6.5 -0.5 0.0
7.0 -0.5 0.0
7.5 -0.5 0.0
8.0 -0.5 0.0
8.5 -0.5 0.0
9.0 -0.5 0.0
9.5 -0.5 0.0
10.0 -0.5 0.0
10.5 -0.5 0.0
11.0 -0.5 0.0
11.5 -0.5 0.0
12.0 -0.5 0.0
12.5 -0.5 0.0
13.0 -0.5 0.0
13.5 -0.5 0.0
14.0 -0.5 0.0
14.5 -0.5 0.0
15.0 -0.5 0.0
15.5 -0.5 0.0
16.0 -0.5 0.0
0.0 0.0 0.0
0.5 0.0 0.0
1.0 0.0 0.0
1.5 0.0 0.0
2.0 0.0 0.0
2.5 0.0 0.0
3.0 0.0 0.0
3.5 0.0 0.0
4.0 0.0 0.0
4.5 0.0 0.0
5.0 0.0 0.0
5.5 0.0 0.0
6.0 0.0 0.0
6.5 0.0 0.0
7.0 0.0 0.0
7.5 0.0 0.0
8.0 0.0 0.0
8.5 0.0 0.0
9.0 0.0 0.0
9.5 0.0 0.0
10.0 0.0 0.0
10.5 0.0 0.0
11.0 0.0 0.0
11.5 0.0 0.0
12.0 0.0 0.0
12.5 0.0 0.0
13.0 0.0 0.0
13.5 0.0 0.0
14.0 0.0 0.0
14.5 0.0 0.0
15.0 0.0 0.0
15.5 0.0 0.0
16.0 0.0 0.0
0.0 0.5 0.0
0.5 0.5 0.0
1.0 0.5 0.0
1.5 0.5 0.0
2.0 0.5 0.0
2.5 0.5 0.0
3.0 0.5 0.0
3.5 0.5 0.0
4.0 0.5 0.0
4.5 0.5 0.0
5.0 0.5 0.0
5.5 0.5 0.0
6.0 0.5 0.0
6.5 0.5 0.0
7.0 0.5 0.0
7.5 0.5 0.0
8.0 0.5 0.0
8.5 0.5 0.0
9.0 0.5 0.0
9.5 0.5 0.0
10.0 0.5 0.0
10.5 0.5 0.0
11.0 0.5 0.0
11.5 0.5 0.0
12.0 0.5 0.0
12.5 0.5 0.0
13.0 0.5 0.0
13.5 0.5 0.0
14.0 0.5 0.0
14.5 0.5 0.0
15.0 0.5 0.0
15.5 0.5 0.0
16.0 0.5 0.0
0.0 1.0 0.0
0.5 1.0 0.0
1.0 1.0 0.0
1.5 1.0 0.0
2.0 1.0 0.0
2.5 1.0 0.0
3.0 1.0 0.0
3.5 1.0 0.0
4.0 1.0 0.0
4.5 1.0 0.0
5.0 1.0 0.0
5.5 1.0 0.0
6.0 1.0 0.0
6.5 1.0 0.0
7.0 1.0 0.0
7.5 1.0 0.0
8.0 1.0 0.0
8.5 1.0 0.0
9.0 1.0 0.0
9.5 1.0 0.0
10.0 1.0 0.0
10.5 1.0 0.0
11.0 1.0 0.0
11.5 1.0 0.0
12.0 1.0 0.0
12.5 1.0 0.0
13.0 1.0 0.0
13.5 1.0 0.0
14.0 1.0 0.0
14.5 1.0 0.0
15.0 1.0 0.0
15.5 1.0 0.0
16.0 1.0 0.0
0.0 1.5 0.0
0.5 1.5 0.0
1.0 1.5 0.0
1.5 1.5 0.0
2.0 1.5 0.0
2.5 1.5 0.0
3.0 1.5 0.0
3.5 1.5 0.0
4.0 1.5 0.0
4.5 1.5 0.0
5.0 1.5 0.0
5.5 1.5 0.0
6.0 1.5 0.0
6.5 1.5 0.0
7.0 1.5 0.0
7.5 1.5 0.0
8.0 1.5 0.0
8.5 1.5 0.0
9.0 1.5 0.0
9.5 1.5 0.0
10.0 1.5 0.0
10.5 1.5 0.0
11.0 1.5 0.0
11.5 1.5 0.0
12.0 1.5 0.0
12.5 1.5 0.0
13.0 1.5 0.0
13.5 1.5 0.0
14.0 1.5 0.0
14.5 1.5 0.0
15.0 1.5 0.0
15.5 1.5 0.0
16.0 1.5 0.0
0.0 2.0 0.0
0.5 2.0 0.0
1.0 2.0 0.0
1.5 2.0 0.0
2.0 2.0 0.0
2.5 2.0 0.0
3.0 2.0 0.0
3.5 2.0 0.0
4.0 2.0 0.0
4.5 2.0 0.0
5.0 2.0 0.0
5.5 2.0 0.0
6.0 2.0 0.0
6.5 2.0 0.0
7.0 2.0 0.0
7.5 2.0 0.0
8.0 2.0 0.0
8.5 2.0 0.0
9.0 2.0 0.0
9.5 2.0 0.0
10.0 2.0 0.0
10.5 2.0 0.0
11.0 2.0 0.0
11.5 2.0 0.0
12.0 2.0 0.0
12.5 2.0 0.0
13.0 2.0 0.0
13.5 2.0 0.0
14.0 2.0 0.0
14.5 2.0 0.0
15.0 2.0 0.0
15.5 2.0 0.0
16.0 2.0 0.0
</DataArray>
</Points>
<Cells>
<DataArray type="Int64" Name="connectivity" format="ascii">
0 1 34 33 
1 2 35 34 
2 3 36 35 
3 4 37 36 
4 5 38 37 
5 6 39 38 
6 7 40 39 
7 8 41 40 
8 9 42 41 
9 10 43 42 
10 11 44 43 
11 12 45 44 
12 13 46 45 
13 14 47 46 
14 15 48 47 
15 16 49 48 
16 17 50 49 
17 18 51 50 
18 19 52 51 
19 20 53 52 
20 21 54 53 
21 22 55 54 
22 23 56 55 
23 24 57 56 
24 25 58 57 
25 26 59 58 
26 27 60 59 
27 28 61 60 
28 29 62 61 
29 30 63 62 