<?xml version="1.0"?>
<VTKFile type="UnstructuredGrid" version="0.1" byte_order="LittleEndian" compressor="vtkZLibDataCompressor">
<UnstructuredGrid>
<Piece NumberOfPoints="297" NumberOfCells="256">
<PointData>
<DataArray type="Float64" Name="displacement" NumberOfComponents="3" format="ascii" >
0.0 -0.0288  0.
-0.0460948788383 -0.0387384160422  0.
-0.0908140861508 -0.0603408991569  0.
-0.134066015024 -0.0929751205455  0.
-0.175842071933 -0.13625373141  0.
-0.216147045096 -0.189794773535  0.
-0.254983939254 -0.253228688161  0.
-0.292354354348 -0.326188155856  0.
-0.328258955112 -0.408306744539  0.
-0.362697983569 -0.499218154965  0.
-0.395671511387 -0.59855608017  0.
-0.427179553602 -0.705954182312  0.
-0.45722211016 -0.821046103783  0.
-0.48579917879 -0.943465477361  0.
-0.512910757883 -1.07284593199  0.
-0.538556846632 -1.2088210953  0.
-0.5627374447 -1.35102459454  0.
-0.585452551993 -1.49909005687  0.
-0.606702168642 -1.65265110929  0.
-0.626486295293 -1.81134137868  0.
-0.644804933934 -1.9747944921  0.
-0.661658089683 -2.14264407836  0.
-0.677045773535 -2.31452377361  0.
-0.690968003519 -2.49006723724  0.
-0.703424791499 -2.6689081894  0.
-0.71441607366 -2.85068048649  0.
-0.723941463031 -3.03501821091  0.
-0.731999561569 -3.22155569668  0.
-0.738586163185 -3.40992651475  0.
-0.743690736862 -3.59976166904  0.
-0.747286541667 -3.79066661857  0.
-0.749332088628 -3.98223100073  0.
-0.749845117735 -4.1732786496  0.
0.00301875 -0.0162  0.
-0.0316847914746 -0.0268161225431  0.
-0.0651939174142 -0.048792753863  0.
-0.0976128592753 -0.0818185424819  0.
-0.128936477497 -0.125482025973  0.
-0.159162122944 -0.179408107374  0.
-0.188288842206 -0.243226739275  0.
-0.216316429202 -0.316570896235  0.
-0.243244862508 -0.399074164615  0.
-0.269074154827 -0.490370259493  0.
-0.293804318166 -0.590092872679  0.
-0.31743535909 -0.697875664843  0.
-0.339967280476 -0.813352277208  0.
-0.361400083385 -0.936156342006  0.
-0.381733768142 -1.06592148795  0.
-0.400968334823 -1.2022813426  0.
-0.419103783438 -1.3448695332  0.
-0.436140114002 -1.49331968689  0.
-0.452077326553 -1.64726543069  0.
-0.46691542116 -1.80634039148  0.
-0.480654397854 -1.9701781962  0.
-0.49329425631 -2.13841247321  0.
-0.50483499476 -2.31067685733  0.
-0.515276606963 -2.48660500432  0.
-0.52461907507 -2.66583062699  0.
-0.532862355764 -2.84798756679  0.
-0.54000636284 -3.03270990746  0.
-0.546050978435 -3.2196319545  0.
-0.550996271578 -3.4083878121  0.
-0.554843933326 -3.59860679853  0.
-0.557602330561 -3.78990858684  0.
-0.559311803908 -3.98181255867  0.
-0.559829381035 -4.17399516114  0.
0.00345 -0.0072  0.
-0.0197037096779 -0.0182235843932  0.
-0.0420717834583 -0.0405444115633  0.
-0.0636814872161 -0.0738514271975  0.
-0.0845587891877 -0.117790568763  0.
-0.104705976994 -0.17199038734  0.
-0.124122284174 -0.236083086424  0.
-0.142806758138 -0.309701642609  0.
-0.16075885715 -0.392479531656  0.
-0.17797833769 -0.484050348989  0.
-0.1944651077 -0.58404772507  0.
-0.210219138146 -0.692105293427  0.
-0.225240422138 -0.807856685437  0.
-0.23952895912 -0.930935530337  0.
-0.253084749721 -1.0609754562  0.
-0.265907794472 -1.19761009057  0.
-0.277998093643 -1.34047306081  0.
-0.289355647283 -1.4891979942  0.
-0.299980455181 -1.64341851801  0.
-0.309872516608 -1.80276825955  0.
-0.319031829734 -1.96688084647  0.
-0.32745839084 -2.13538990754  0.
-0.335152194503 -2.30792907468  0.
-0.342113239903 -2.48413198756  0.
-0.34834155954 -2.66363230079  0.
-0.353837313814 -2.84606369083  0.
-0.358601048903 -3.03105982447  0.
-0.362634291247 -3.2182542329  0.
-0.36594068992 -3.40727945386  0.
-0.36852711836 -3.59776567218  0.
-0.370403365895 -3.78932948494  0.
-0.371537527588 -3.98160638365  0.
-0.371871481925 -4.17436799691  0.
0.00215625 -0.0018  0.
-0.00942555309647 -0.0130510602925  0.
-0.0206145640167 -0.0355816624992  0.
-0.0314227660509 -0.0690710608433  0.
-0.0418603893496 -0.113176911248  0.
-0.0519328042782 -0.167540795482  0.
-0.0616402726055 -0.231797409712  0.
-0.0709822049663 -0.305580306553  0.
-0.0799581410878 -0.388522827022  0.
-0.0885678463909 -0.480258424041  0.
-0.0968112234876 -0.58042064041  0.
-0.104688238307 -0.688643070177  0.
-0.112198881196 -0.804559329506  0.
-0.119343150381 -0.927803042777  0.
-0.126121046044 -1.05800783688  0.
-0.132532568573 -1.19480733925  0.
-0.1385777182 -1.33783517739  0.
-0.144256494953 -1.48672497877  0.
-0.149568898595 -1.64111037102  0.
-0.154514928385 -1.80062498207  0.
-0.159094582633 -1.96490244039  0.
-0.163307858367 -2.13357637471  0.
-0.167154752802 -2.30628041129  0.
-0.170635272647 -2.48264816267  0.
-0.173749468604 -2.66231319347  0.
-0.17649753715 -2.84490892932  0.
-0.178880073006 -3.03006846852  0.
-0.180898581987 -3.21742422057  0.
-0.18255613479 -3.40660781585  0.
-0.183856935839 -3.59725051415  0.
-0.184797223156 -3.78899307211  0.
-0.185358964911 -3.98151375224  0.
-0.185524905401 -4.1745494692  0.
0.0 0.0  0.
7.98635099826e-17 -0.0113249283384  0.
1.66648157312e-16 -0.0339252888195  0.
2.5903141824e-16 -0.0674767634113  0.
3.4957140613e-16 -0.111639288582  0.
4.41036517476e-16 -0.166057795061  0.
5.3271786046e-16 -0.230368974356  0.
6.3102759191e-16 -0.304206580289  0.
7.24417829047e-16 -0.387203945274  0.
8.21608213151e-16 -0.478994455071  0.
9.16335720983e-16 -0.579211613548  0.
1.00967105984e-15 -0.68748899582  0.
1.11318982736e-15 -0.803460210703  0.
1.21035781378e-15 -0.926758880136  0.
1.30522682724e-15 -1.05701863037  0.
1.39290725394e-15 -1.19387308878  0.
1.47372133257e-15 -1.33695588292  0.
1.56608446812e-15 -1.48590064035  0.
1.65441253381e-15 -1.64034098886  0.
1.72316870255e-15 -1.79991055664  0.
1.76366703596e-15 -1.96424297253  0.
1.88078260265e-15 -2.13297186508  0.
1.98653007045e-15 -2.30573085737  0.
2.10998674086e-15 -2.4821535483  0.
2.15704529553e-15 -2.66187345777  0.
2.18384951954e-15 -2.84452389443  0.
2.20054899977e-15 -3.0297376797  0.
2.22172064765e-15 -3.2171468035  0.
2.27691400065e-15 -3.4063823625  0.
2.33977724439e-15 -3.59707830215  0.
2.33081035534e-15 -3.78888431308  0.
2.26093838579e-15 -3.98148545989  0.
2.30042135525e-15 -4.17460515201  0.
-0.00215625 -0.0018  0.
0.00942555309647 -0.0130510602925  0.
0.0206145640167 -0.0355816624992  0.
0.0314227660509 -0.0690710608433  0.
0.0418603893496 -0.113176911248  0.
0.0519328042782 -0.167540795482  0.
0.0616402726055 -0.231797409712  0.
0.0709822049663 -0.305580306553  0.
0.0799581410878 -0.388522827022  0.
0.0885678463909 -0.480258424041  0.
0.0968112234876 -0.58042064041  0.
0.104688238307 -0.688643070177  0.
0.112198881196 -0.804559329506  0.
0.119343150381 -0.927803042777  0.
0.126121046044 -1.05800783688  0.
0.132532568573 -1.19480733925  0.
0.1385777182 -1.33783517739  0.
0.144256494953 -1.48672497877  0.
0.149568898595 -1.64111037102  0.
0.154514928385 -1.80062498207  0.
0.159094582633 -1.96490244039  0.
0.163307858367 -2.13357637471  0.
0.167154752802 -2.30628041129  0.
0.170635272647 -2.48264816267  0.
0.173749468604 -2.66231319347  0.
0.17649753715 -2.84490892932  0.
0.178880073006 -3.03006846852  0.
0.180898581987 -3.21742422057  0.
0.18255613479 -3.40660781585  0.
0.183856935839 -3.59725051415  0.
0.184797223156 -3.78899307211  0.
0.185358964911 -3.98151375224  0.
0.185524905401 -4.1745494692  0.
-0.00345 -0.0072  0.
0.0197037096779 -0.0182235843932  0.
0.0420717834583 -0.0405444115633  0.
0.0636814872161 -0.0738514271975  0.
0.0845587891877 -0.117790568763  0.
0.104705976994 -0.17199038734  0.
0.124122284174 -0.236083086424  0.
0.142806758138 -0.309701642609  0.
0.16075885715 -0.392479531656  0.
0.17797833769 -0.484050348989  0.
0.1944651077 -0.58404772507  0.
0.210219138146 -0.692105293427  0.
0.225240422138 -0.807856685437  0.
0.23952895912 -0.930935530337  0.
0.253084749721 -1.0609754562  0.
0.265907794472 -1.19761009057  0.
0.277998093643 -1.34047306081  0.
0.289355647283 -1.4891979942  0.
0.299980455181 -1.64341851801  0.
0.309872516608 -1.80276825955  0.
0.319031829734 -1.96688084647  0.
0.32745839084 -2.13538990754  0.
0.335152194503 -2.30792907468  0.
0.342113239903 -2.48413198756  0.
0.34834155954 -2.66363230079  0.
0.353837313814 -2.84606369083  0.
0.358601048903 -3.03105982447  0.
0.362634291247 -3.2182542329  0.
0.36594068992 -3.40727945386  0.
0.36852711836 -3.59776567218  0.
0.370403365895 -3.78932948494  0.
0.371537527588 -3.98160638365  0.
0.371871481925 -4.17436799691  0.
-0.00301875 -0.0162  0.
0.0316847914746 -0.0268161225431  0.
0.0651939174142 -0.048792753863  0.
0.0976128592753 -0.0818185424819  0.
0.128936477497 -0.125482025973  0.
0.159162122944 -0.179408107374  0.
0.188288842206 -0.243226739275  0.
0.216316429202 -0.316570896235  0.
0.243244862508 -0.399074164615  0.
0.269074154827 -0.490370259493  0.
0.293804318166 -0.590092872679  0.
0.31743535909 -0.697875664843  0.
0.339967280476 -0.813352277208  0.
0.361400083385 -0.936156342006  0.
0.381733768142 -1.06592148795  0.
0.400968334823 -1.2022813426  0.
0.419103783438 -1.3448695332  0.
0.436140114002 -1.49331968689  0.
0.452077326553 -1.64726543069  0.
0.46691542116 -1.80634039148  0.
0.480654397854 -1.9701781962  0.
0.49329425631 -2.13841247321  0.
0.50483499476 -2.31067685733  0.
0.515276606963 -2.48660500432  0.
0.52461907507 -2.66583062699  0.
0.532862355764 -2.84798756679  0.
0.54000636284 -3.03270990746  0.
0.546050978435 -3.2196319545  0.
0.550996271578 -3.4083878121  0.
0.554843933326 -3.59860679853  0.
0.557602330561 -3.78990858684  0.
0.559311803908 -3.98181255867  0.
0.559829381035 -4.17399516114  0.
0.0 -0.0288  0.
0.0460948788383 -0.0387384160422  0.
0.0908140861508 -0.0603408991569  0.
0.134066015024 -0.0929751205455  0.
0.175842071933 -0.13625373141  0.
0.216147045096 -0.189794773535  0.
0.254983939254 -0.253228688161  0.
0.292354354348 -0.326188155856  0.
0.328258955112 -0.408306744539  0.
0.362697983569 -0.499218154965  0.
0.395671511387 -0.59855608017  0.
0.427179553602 -0.705954182312  0.
0.45722211016 -0.821046103783  0.
0.48579917879 -0.943465477361  0.
0.512910757883 -1.07284593199  0.
0.538556846632 -1.2088210953  0.
0.5627374447 -1.35102459454  0.
0.585452551993 -1.49909005687  0.
0.606702168642 -1.65265110929  0.
0.626486295293 -1.81134137868  0.
0.644804933934 -1.9747944921  0.
0.661658089683 -2.14264407836  0.
0.677045773535 -2.31452377361  0.
0.690968003519 -2.49006723724  0.
0.703424791499 -2.6689081894  0.
0.71441607366 -2.85068048649  0.
0.723941463031 -3.03501821091  0.
0.731999561569 -3.22155569668  0.
0.738586163185 -3.40992651475  0.
0.743690736862 -3.59976166904  0.
0.747286541667 -3.79066661857  0.
0.749332088628 -3.98223100073  0.
0.749845117735 -4.1732786496  0.
</DataArray>
<DataArray type="Float64" Name="Nodal_sigma_xx" NumberOfComponents="1" format="ascii" >
-80705.2002892 
-79466.4471854 
-76948.711726 
-74384.9691252 
-71815.5479179 
-69247.3274921 
-66680.9167276 
-64115.5613983 
-61550.6925075 
-58986.0101241 
-56421.3878685 
-53856.7804298 
-51292.1745548 
-48727.5675784 
-46162.9595852 
-43598.3510359 
-41033.7422717 
-38469.1335659 
-35904.5253556 
-33339.9186374 
-30775.3155434 
-28210.719648 
-25646.1336786 
-23081.5466526 
-20516.8877515 
-17951.8943546 
-15385.785685 
-12816.6273366 
-10240.2883421 
-7650.82134073 
-5045.27996463 
-2484.67321344 
-1230.7989879 
-69242.4296542 
-68141.032739 
-65943.8459533 
-63749.4507134 
-61551.5730043 
-59352.9754649 
-57154.4153948 
-54956.0101933 
-52757.7023424 
-50559.4407038 
-48361.1971149 
-46162.9594688 
-43964.7233435 
-41766.4874127 
-39568.2513934 
-37370.0152854 
-35171.7791404 
-32973.5430235 
-30775.3070418 
-28577.0713991 
-26378.8364167 
-24180.6022858 
-21982.3677731 
-19784.1256993 
-17585.8502418 
-15387.4660766 
-13188.7914794 
-10989.4632348 
-8789.13116843 
-6588.54833698 
-4395.340054 
-2206.50739023 
-1110.74547661 
-46232.5523361 
-45462.8251615 
-43956.158749 
-42488.7489189 
-41027.6853178 
-39565.52679 
-38101.7310506 
-36636.9452692 
-35171.7022138 
-33706.2821235 
-32240.8045864 
-30775.3126659 
-29309.819101 
-27844.3265134 
-26378.8348666 
-24913.3437402 
-23447.8528153 
-21982.3618329 
-20516.870379 
-19051.3775143 
-17585.8812466 
-16120.3782862 
-14654.8663173 
-13189.3564101 
-11723.9168349 
-10258.7985381 
-8794.73835018 
-7333.56638567 
-5879.05487004 
-4436.83389544 
-3006.83572188 
-1539.37332901 
-784.657571817 
-23125.1203596 
-22741.3409439 
-21983.1686397 
-21242.5102325 
-20511.4344241 
-19781.3429823 
-19050.2249724 
-18318.2315971 
-17585.775742 
-16853.1235242 
-16120.4010764 
-15387.658081 
-14654.9109725 
-13922.1640083 
-13189.4177599 
-12456.6719907 
-11723.9264125 
-10991.1807433 
-10258.434525 
-9525.68680118 
-8792.93577562 
-8060.17919163 
-7327.41832973 
-6594.6744459 
-5862.04022166 
-5129.81428423 
-4398.79464565 
-3670.75167821 
-2948.58246551 
-2233.44827575 
-1512.32860385 
-766.077263521 
-385.002594599 
1.72803993337e-10 
1.77351466846e-10 
1.85991666513e-10 
1.83263182407e-10 
1.83263182407e-10 
1.91903382074e-10 
1.93267624127e-10 
1.86901161214e-10 
1.85991666513e-10 
1.81444193004e-10 
1.70075509232e-10 
1.83263182407e-10 
2.1054802346e-10 
2.16004991671e-10 
1.80534698302e-10 
1.796252036e-10 
2.26009433391e-10 
2.24190443987e-10 
2.30556906899e-10 
1.91448634723e-10 
1.51885615196e-10 
1.80534698302e-10 
2.44881448452e-10 
2.48746800935e-10 
1.71439751284e-10 
1.6564172256e-10 
1.65925939655e-10 
1.82183157449e-10 
2.67675659416e-10 
1.95967686523e-10 
7.98650034994e-12 
1.90496507457e-11 
9.15036935112e-11 
23125.1203596 
22741.3409439 
21983.1686397 
21242.5102325 
20511.4344241 
19781.3429823 
19050.2249724 
18318.2315971 
17585.775742 
16853.1235242 
16120.4010764 
15387.658081 
14654.9109725 
13922.1640083 
13189.4177599 
12456.6719907 
11723.9264125 
10991.1807433 
10258.434525 
9525.68680118 
8792.93577562 
8060.17919163 
7327.41832973 
6594.6744459 
5862.04022166 
5129.81428423 
4398.79464565 
3670.75167821 
2948.58246551 
2233.44827575 
1512.32860386 
766.077263521 
385.002594599 
46232.5523361 
45462.8251615 
43956.158749 
42488.7489189 
41027.6853178 
39565.52679 
38101.7310506 
36636.9452692 
35171.7022138 
33706.2821235 
32240.8045864 
30775.3126659 
29309.819101 
27844.3265134 
26378.8348666 
24913.3437402 
23447.8528153 
21982.3618329 
20516.870379 
19051.3775143 
17585.8812466 
16120.3782862 
14654.8663173 
13189.3564101 
11723.9168349 
10258.7985381 
8794.73835018 
7333.56638567 
5879.05487004 
4436.83389544 
3006.83572188 
1539.37332901 
784.657571817 
69242.4296542 
68141.032739 
65943.8459533 
63749.4507134 
61551.5730043 
59352.9754649 
57154.4153948 
54956.0101933 
52757.7023424 
50559.4407038 
48361.1971149 
46162.9594688 
43964.7233435 
41766.4874127 
39568.2513934 
37370.0152854 
35171.7791404 
32973.5430235 
30775.3070418 
28577.0713991 
26378.8364167 
24180.6022858 
21982.3677731 
19784.1256993 
17585.8502418 
15387.4660766 
13188.7914794 
10989.4632348 
8789.13116843 
6588.54833698 
4395.340054 
2206.50739023 
1110.74547661 
80705.2002892 
79466.4471854 
76948.711726 
74384.9691252 
71815.5479179 
69247.3274921 
66680.9167276 
64115.5613983 
61550.6925075 
58986.0101241 
56421.3878685 
53856.7804298 
51292.1745548 
48727.5675784 
46162.9595852 
43598.3510359 
41033.7422717 
38469.1335659 
35904.5253556 
33339.9186374 
30775.3155434 
28210.719648 
25646.1336786 
23081.5466526 
20516.8877515 
17951.8943546 
15385.785685 
12816.6273366 
10240.2883421 
7650.82134073 
5045.27996463 
2484.67321344 
1230.7989879 
</DataArray>
<DataArray type="Float64" Name="Nodal_sigma_yy" NumberOfComponents="1" format="ascii" >
310.733412324 
156.431990374 
2.96755740319 
1.01269148841 
-1.33682602796 
-0.7049249376 
-0.363241161829 
-0.144393791935 
-0.0502823952847 
-0.0138586453886 
-0.00239944710484 
0.000373537111045 
0.000620829815489 
0.000386629119021 
0.000183303665835 
6.89776920808e-05 
-6.2094554778e-06 
-0.000124116394545 
-0.000421375363203 
-0.00113743285237 
-0.00257879607534 
-0.00464731191369 
-0.00477888016849 
0.00828119407629 
0.0723977619311 
0.284320542602 
0.898684206966 
2.25703115086 
5.92249822797 
7.99130694102 
31.104030635 
-306.199808822 
-667.309176921 
284.686928255 
164.227901225 
24.7212601214 
1.924020021 
-1.8706924594 
-1.50844632456 
-0.798889405072 
-0.342779258903 
-0.124455459891 
-0.0372275970824 
-0.00786923504688 
-3.62987202607e-05 
0.00114759100938 
0.000822280080001 
0.000414016333025 
0.000157633157414 
-2.69343920536e-05 
-0.000319056668673 
-0.00102138082627 
-0.0026253714243 
-0.00562126695104 
-0.00913381029352 
-0.00573864811429 
0.0340197511433 
0.200571429606 
0.726772464148 
2.12063983462 
5.25475681088 
11.1562606843 
17.4825633292 
5.11828466634 
-287.697096117 
-565.588756002 
212.765424461 
146.456417806 
46.8340295353 
6.16766583461 
-2.04985029836 
-2.39101925138 
-1.37914042083 
-0.621950866046 
-0.235584074136 
-0.0744453597019 
-0.0177119416051 
-0.00147412921035 
0.00159456468941 
0.00135479211644 
0.000723295088164 
0.000278361776168 
-6.7816305318e-05 
-0.000619711606191 
-0.00189638756956 
-0.00467773868371 
-0.00949198376912 
-0.0137761261542 
-0.00184151434911 
0.0837880338481 
0.411488014921 
1.39728747725 
3.89081135838 
9.15584380106 
17.2862403346 
20.9697650662 
-30.520647916 
-222.10711433 
-363.148086641 
111.791919529 
81.706430186 
32.9407402119 
7.17955457966 
-0.976220333463 
-1.75869289716 
-1.09780799861 
-0.513706557536 
-0.200471919947 
-0.0656222770821 
-0.0166810834962 
-0.00205738632582 
0.00102689424671 
0.00103765122498 
0.000580996475378 
0.000225438061605 
-6.73250734309e-05 
-0.000536361504061 
-0.00159263321466 
-0.00381387542951 
-0.00742124881246 
-0.00971579250759 
0.00358696276045 
0.0823807120929 
0.368358809983 
1.20085938078 
3.24043612139 
7.29822515104 
12.6707960261 
9.21633748616 
-29.0392027212 
-117.357111962 
-173.616454096 
4.20072865381e-11 
3.56692453352e-11 
2.15862883124e-11 
8.10018718767e-13 
1.19371179608e-12 
1.23350218928e-11 
5.88329385209e-12 
7.56017470849e-12 
3.97903932026e-13 
-2.20268248086e-11 
-4.6156856115e-11 
-6.97752966516e-11 
2.17141860048e-11 
6.4915184339e-11 
-1.13686837722e-12 
5.40438804819e-11 
1.51160861606e-10 
1.50663481691e-10 
2.08018491321e-10 
2.24147811423e-10 
4.57447413282e-11 
-5.67297320231e-11 
1.29091404233e-10 
2.96587643334e-10 
2.17852402784e-10 
2.16154205646e-10 
3.27318616655e-10 
3.87764487186e-10 
5.79889913865e-10 
5.02870634023e-10 
1.13422160553e-10 
5.71276359551e-12 
2.74411604551e-11 
-111.791919529 
-81.706430186 
-32.9407402118 
-7.17955457965 
0.976220333461 
1.75869289717 
1.09780799861 
0.513706557537 
0.200471919986 
0.0656222771653 
0.0166810835391 
0.00205738633187 
-0.00102689410085 
-0.00103765104933 
-0.00058099638386 
-0.000225437860223 
6.73253397565e-05 
0.000536361676097 
0.00159263345212 
0.00381387583244 
0.00742124903238 
0.00971579255761 
-0.0035869623468 
-0.0823807114456 
-0.3683588096 
-1.20085938064 
-3.24043612128 
-7.29822515058 
-12.6707960255 
-9.21633748563 
29.0392027216 
117.357111962 
173.616454096 
-212.765424461 
-146.456417806 
-46.8340295353 
-6.1676658346 
2.04985029835 
2.39101925135 
1.37914042079 
0.621950866011 
0.235584074158 
0.0744453597479 
0.0177119416194 
0.00147412931051 
-0.0015945645232 
-0.00135479200594 
-0.00072329505781 
-0.000278361747746 
6.7816393198e-05 
0.000619711682475 
0.00189638750589 
0.00467773847345 
0.00949198375639 
0.013776126598 
0.00184151503851 
-0.0837880334989 
-0.411488015067 
-1.39728747766 
-3.89081135894 
-9.15584380135 
-17.2862403345 
-20.9697650657 
30.5206479165 
222.10711433 
363.148086642 
-284.686928255 
-164.227901225 
-24.7212601214 
-1.92402002101 
1.87069245939 
1.50844632454 
0.798889405012 
0.34277925885 
0.124455459891 
0.037227597094 
0.00786923504893 
3.62986691016e-05 
-0.00114759112785 
-0.000822280074544 
-0.000414016242075 
-0.000157633127628 
2.69344029675e-05 
0.000319056548051 
0.0010213805549 
0.0026253710987 
0.00562126673731 
0.0091338101538 
0.0057386477763 
-0.0340197516862 
-0.200571430055 
-0.726772464314 
-2.12063983474 
-5.25475681133 
-11.1562606845 
-17.4825633293 
-5.11828466667 
287.697096116 
565.588756001 
-310.733412324 
-156.431990374 
-2.96755740319 
-1.01269148844 
1.33682602794 
0.704924937596 
0.363241161765 
0.144393791884 
0.0502823953193 
0.0138586455305 
0.00239944725854 
-0.000373537262021 
-0.00062083013654 
-0.000386629107652 
-0.000183303359336 
-6.8977394676e-05 
6.20953187536e-06 
0.00012411604348 
0.000421375006681 
0.00113743297925 
0.00257879602168 
0.00464731096008 
0.00477887868283 
-0.00828119515882 
-0.0723977622056 
-0.284320542284 
-0.898684206527 
-2.25703115104 
-5.9224982286 
-7.99130694202 
-31.1040306362 
306.199808821 
667.30917692 
</DataArray>
<DataArray type="Float64" Name="Nodal_sigma_xy" NumberOfComponents="1" format="ascii" >
-1202.19277758 
-1283.56914539 
-1372.21997239 
-1378.85186394 
-1376.91367475 
-1374.83351265 
-1373.67880551 
-1373.16187931 
-1372.96601304 
-1372.90392026 
-1372.88903897 
-1372.88773351 
-1372.88902443 
-1372.89013684 
-1372.89073738 
-1372.89099754 
-1372.89106496 
-1372.89094244 
-1372.89040434 
-1372.88882387 
-1372.88495032 
-1372.87712374 
-1372.86586764 
-1372.8648333 
-1372.93546397 
-1373.27876257 
-1374.44163035 
-1377.70200372 
-1385.7012522 
-1402.53245606 
-1430.68872335 
-1338.09386057 
-1228.54996664 
-2375.59160795 
-2413.09398395 
-2462.41200307 
-2475.2781364 
-2475.53668414 
-2474.02182561 
-2472.90777314 
-2472.34681039 
-2472.11480674 
-2472.03382365 
-2472.01094002 
-2472.00677084 
-2472.0072227 
-2472.00816613 
-2472.00877006 
-2472.00905143 
-2472.0091148 
-2472.00894027 
-2472.00827178 
-2472.00646723 
-2472.00242276 
-2471.9952948 
-2471.98851864 
-2472.00413378 
-2472.12404716 
-2472.59041795 
-2474.00665728 
-2477.62639241 
-2485.31388016 
-2497.67291768 
-2499.71464975 
-2440.16903033 
-2385.82119337 
-4330.31023921 
-4310.37589759 
-4295.19881737 
-4302.03916005 
-4304.38765683 
-4304.51461614 
-4304.24311233 
-4304.03784857 
-4303.93442262 
-4303.89185667 
-4303.87709471 
-4303.87296476 
-4303.8722344 
-4303.87233171 
-4303.87250831 
-4303.87261071 
-4303.87262473 
-4303.8725214 
-4303.87219614 
-4303.87144916 
-4303.87011448 
-4303.86878706 
-4303.87143578 
-4303.89298002 
-4303.97786597 
-4304.23743796 
-4304.90080345 
-4306.27800297 
-4308.11044829 
-4306.42827016 
-4288.49710318 
-4298.53214212 
-4323.8906377 
-5499.40839205 
-5461.90601605 
-5412.58799693 
-5399.7218636 
-5399.46331585 
-5400.97817439 
-5402.09222686 
-5402.65318961 
-5402.88519326 
-5402.96617635 
-5402.98905998 
-5402.99322916 
-5402.9927773 
-5402.99183386 
-5402.99122994 
-5402.99094857 
-5402.9908852 
-5402.99105973 
-5402.99172822 
-5402.99353277 
-5402.99757724 
-5403.00470519 
-5403.01148136 
-5402.99586622 
-5402.87595284 
-5402.40958205 
-5400.99334272 
-5397.37360759 
-5389.68611984 
-5377.32708232 
-5375.28535025 
-5434.83096967 
-5489.17880663 
-5887.18674401 
-5845.67905943 
-5787.38239287 
-5767.06981596 
-5764.31101159 
-5766.13725508 
-5767.83496983 
-5768.76242355 
-5769.16514171 
-5769.31236641 
-5769.35677161 
-5769.36633696 
-5769.36650677 
-5769.36519973 
-5769.36424599 
-5769.36378102 
-5769.36368557 
-5769.36401476 
-5769.36520339 
-5769.36827781 
-5769.37482072 
-5769.38530215 
-5769.39126079 
-5769.34920666 
-5769.10880409 
-5768.24636151 
-5765.75676274 
-5759.74199033 
-5748.07785121 
-5734.61100361 
-5742.31707029 
-5814.84185519 
-5873.66875796 
-5499.40839205 
-5461.90601605 
-5412.58799693 
-5399.7218636 
-5399.46331585 
-5400.97817439 
-5402.09222686 
-5402.65318961 
-5402.88519326 
-5402.96617635 
-5402.98905998 
-5402.99322916 
-5402.9927773 
-5402.99183386 
-5402.99122994 
-5402.99094857 
-5402.9908852 
-5402.99105973 
-5402.99172822 
-5402.99353277 
-5402.99757724 
-5403.00470519 
-5403.01148136 
-5402.99586622 
-5402.87595284 
-5402.40958205 
-5400.99334272 
-5397.37360759 
-5389.68611984 
-5377.32708232 
-5375.28535025 
-5434.83096967 
-5489.17880663 
-4330.31023921 
-4310.37589759 
-4295.19881737 
-4302.03916005 
-4304.38765683 
-4304.51461614 
-4304.24311233 
-4304.03784857 
-4303.93442262 
-4303.89185667 
-4303.87709471 
-4303.87296476 
-4303.8722344 
-4303.87233171 
-4303.87250831 
-4303.87261071 
-4303.87262473 
-4303.8725214 
-4303.87219614 
-4303.87144916 
-4303.87011448 
-4303.86878706 
-4303.87143578 
-4303.89298002 
-4303.97786597 
-4304.23743796 
-4304.90080345 
-4306.27800297 
-4308.11044829 
-4306.42827016 
-4288.49710318 
-4298.53214212 
-4323.8906377 
-2375.59160795 
-2413.09398395 
-2462.41200307 
-2475.2781364 
-2475.53668414 
-2474.02182561 
-2472.90777314 
-2472.34681039 
-2472.11480674 
-2472.03382365 
-2472.01094002 
-2472.00677084 
-2472.0072227 
-2472.00816613 
-2472.00877006 
-2472.00905143 
-2472.0091148 
-2472.00894027 
-2472.00827178 
-2472.00646723 
-2472.00242276 
-2471.9952948 
-2471.98851864 
-2472.00413378 
-2472.12404716 
-2472.59041795 
-2474.00665728 
-2477.62639241 
-2485.31388016 
-2497.67291768 
-2499.71464975 
-2440.16903033 
-2385.82119337 
-1202.19277758 
-1283.56914539 
-1372.21997239 
-1378.85186394 
-1376.91367475 
-1374.83351265 
-1373.67880551 
-1373.16187931 
-1372.96601304 
-1372.90392026 
-1372.88903897 
-1372.88773351 
-1372.88902443 
-1372.89013684 
-1372.89073738 
-1372.89099754 
-1372.89106496 
-1372.89094244 
-1372.89040434 
-1372.88882387 
-1372.88495032 
-1372.87712374 
-1372.86586764 
-1372.8648333 
-1372.93546397 
-1373.27876257 
-1374.44163035 
-1377.70200372 
-1385.7012522 
-1402.53245606 
-1430.68872335 
-1338.09386057 
-1228.54996664 
</DataArray>
</PointData>
<CellData>
</CellData>
<Points>
<DataArray type="Float64" Name="Points" NumberOfComponents="3" format="ascii">
0.0 -2.0 0.0
0.5 -2.0 0.0
1.0 -2.0 0.0
1.5 -2.0 0.0
2.0 -2.0 0.0
2.5 -2.0 0.0
3.0 -2.0 0.0
3.5 -2.0 0.0
4.0 -2.0 0.0
4.5 -2.0 0.0
5.0 -2.0 0.0
5.5 -2.0 0.0
6.0 -2.0 0.0
6.5 -2.0 0.0
7.0 -2.0 0.0
7.5 -2.0 0.0
8.0 -2.0 0.0
8.5 -2.0 0.0
9.0 -2.0 0.0
9.5 -2.0 0.0
10.0 -2.0 0.0
10.5 -2.0 0.0
11.0 -2.0 0.0
11.5 -2.0 0.0
12.0 -2.0 0.0
12.5 -2.0 0.0
13.0 -2.0 0.0
13.5 -2.0 0.0
14.0 -2.0 0.0
14.5 -2.0 0.0
15.0 -2.0 0.0
15.5 -2.0 0.0
16.0 -2.0 0.0
0.0 -1.5 0.0
0.5 -1.5 0.0
1.0 -1.5 0.0
1.5 -1.5 0.0
2.0 -1.5 0.0
2.5 -1.5 0.0
3.0 -1.5 0.0
3.5 -1.5 0.0
4.0 -1.5 0.0
4.5 -1.5 0.0
5.0 -1.5 0.0
5.5 -1.5 0.0
6.0 -1.5 0.0
6.5 -1.5 0.0
7.0 -1.5 0.0
7.5 -1.5 0.0
8.0 -1.5 0.0
8.5 -1.5 0.0
9.0 -1.5 0.0
9.5 -1.5 0.0
10.0 -1.5 0.0
10.5 -1.5 0.0
11.0 -1.5 0.0
11.5 -1.5 0.0
12.0 -1.5 0.0
12.5 -1.5 0.0
13.0 -1.5 0.0
13.5 -1.5 0.0
14.0 -1.5 0.0
14.5 -1.5 0.0
15.0 -1.5 0.0
15.5 -1.5 0.0
16.0 -1.5 0.0
0.0 -1.0 0.0
0.5 -1.0 0.0
1.0 -1.0 0.0
1.5 -1.0 0.0
2.0 -1.0 0.0
2.5 -1.0 0.0
3.0 -1.0 0.0
3.5 -1.0 0.0
4.0 -1.0 0.0
4.5 -1.0 0.0
5.0 -1.0 0.0
5.5 -1.0 0.0
6.0 -1.0 0.0
6.5 -1.0 0.0
7.0 -1.0 0.0
7.5 -1.0 0.0
8.0 -1.0 0.0
8.5 -1.0 0.0
9.0 -1.0 0.0
9.5 -1.0 0.0
10.0 -1.0 0.0
10.5 -1.0 0.0
11.0 -1.0 0.0
11.5 -1.0 0.0
12.0 -1.0 0.0
12.5 -1.0 0.0
13.0 -1.0 0.0
13.5 -1.0 0.0
14.0 -1.0 0.0
14.5 -1.0 0.0
15.0 -1.0 0.0
15.5 -1.0 0.0
16.0 -1.0 0.0
0.0 -0.5 0.0
0.5 -0.5 0.0
1.0 -0.5 0.0
1.5 -0.5 0.0
2.0 -0.5 0.0
2.5 -0.5 0.0
3.0 -0.5 0.0
3.5 -0.5 0.0
4.0 -0.5 0.0
4.5 -0.5 0.0
5.0 -0.5 0.0
5.5 -0.5 0.0
6.0 -0.5 0.0
6.5 -0.5 0.0
7.0 -0.5 0.0
7.5 -0.5 0.0
8.0 -0.5 0.0
8.5 -0.5 0.0
9.0 -0.5 0.0
9.5 -0.5 0.0
10.0 -0.5 0.0
10.5 -0.5 0.0
11.0 -0.5 0.0
11.5 -0.5 0.0
12.0 -0.5 0.0
12.5 -0.5 0.0
13.0 -0.5 0.0
13.5 -0.5 0.0
14.0 -0.5 0.0
14.5 -0.5 0.0
15.0 -0.5 0.0
15.5 -0.5 0.0
16.0 -0.5 0.0
0.0 0.0 0.0
0.5 0.0 0.0
1.0 0.0 0.0
1.5 0.0 0.0
2.0 0.0 0.0
2.5 0.0 0.0
3.0 0.0 0.0
3.5 0.0 0.0
4.0 0.0 0.0
4.5 0.0 0.0
5.0 0.0 0.0
5.5 0.0 0.0
6.0 0.0 0.0
6.5 0.0 0.0
7.0 0.0 0.0
7.5 0.0 0.0
8.0 0.0 0.0
8.5 0.0 0.0
9.0 0.0 0.0
9.5 0.0 0.0
10.0 0.0 0.0
10.5 0.0 0.0
11.0 0.0 0.0
11.5 0.0 0.0
12.0 0.0 0.0
12.5 0.0 0.0
13.0 0.0 0.0
13.5 0.0 0.0
14.0 0.0 0.0
14.5 0.0 0.0
15.0 0.0 0.0
15.5 0.0 0.0
16.0 0.0 0.0
0.0 0.5 0.0
0.5 0.5 0.0
1.0 0.5 0.0
1.5 0.5 0.0
2.0 0.5 0.0
2.5 0.5 0.0
3.0 0.5 0.0
3.5 0.5 0.0
4.0 0.5 0.0
4.5 0.5 0.0
5.0 0.5 0.0
5.5 0.5 0.0
6.0 0.5 0.0
6.5 0.5 0.0
7.0 0.5 0.0
7.5 0.5 0.0
8.0 0.5 0.0
8.5 0.5 0.0
9.0 0.5 0.0
9.5 0.5 0.0
10.0 0.5 0.0
10.5 0.5 0.0
11.0 0.5 0.0
11.5 0.5 0.0
12.0 0.5 0.0
12.5 0.5 0.0
13.0 0.5 0.0
13.5 0.5 0.0
14.0 0.5 0.0
14.5 0.5 0.0
15.0 0.5 0.0
15.5 0.5 0.0
16.0 0.5 0.0
0.0 1.0 0.0
0.5 1.0 0.0
1.0 1.0 0.0
1.5 1.0 0.0
2.0 1.0 0.0
2.5 1.0 0.0
3.0 1.0 0.0
3.5 1.0 0.0
4.0 1.0 0.0
4.5 1.0 0.0
5.0 1.0 0.0
5.5 1.0 0.0
6.0 1.0 0.0
6.5 1.0 0.0
7.0 1.0 0.0
7.5 1.0 0.0
8.0 1.0 0.0
8.5 1.0 0.0
9.0 1.0 0.0
9.5 1.0 0.0
10.0 1.0 0.0
10.5 1.0 0.0
11.0 1.0 0.0
11.5 1.0 0.0
12.0 1.0 0.0
12.5 1.0 0.0
13.0 1.0 0.0
13.5 1.0 0.0
14.0 1.0 0.0
14.5 1.0 0.0
15.0 1.0 0.0
15.5 1.0 0.0
16.0 1.0 0.0
0.0 1.5 0.0
0.5 1.5 0.0
1.0 1.5 0.0
1.5 1.5 0.0
2.0 1.5 0.0
2.5 1.5 0.0
3.0 1.5 0.0
3.5 1.5 0.0
4.0 1.5 0.0
4.5 1.5 0.0
5.0 1.5 0.0
5.5 1.5 0.0
6.0 1.5 0.0
6.5 1.5 0.0
7.0 1.5 0.0
7.5 1.5 0.0
8.0 1.5 0.0
8.5 1.5 0.0
9.0 1.5 0.0
9.5 1.5 0.0
10.0 1.5 0.0
10.5 1.5 0.0
11.0 1.5 0.0
11.5 1.5 0.0
12.0 1.5 0.0
12.5 1.5 0.0
13.0 1.5 0.0
13.5 1.5 0.0
14.0 1.5 0.0
14.5 1.5 0.0
15.0 1.5 0.0
15.5 1.5 0.0
16.0 1.5 0.0
0.0 2.0 0.0
0.5 2.0 0.0
1.0 2.0 0.0
1.5 2.0 0.0
2.0 2.0 0.0
2.5 2.0 0.0
3.0 2.0 0.0
3.5 2.0 0.0
4.0 2.0 0.0
4.5 2.0 0.0
5.0 2.0 0.0
5.5 2.0 0.0
6.0 2.0 0.0
6.5 2.0 0.0
7.0 2.0 0.0
7.5 2.0 0.0
8.0 2.0 0.0
8.5 2.0 0.0
9.0 2.0 0.0
9.5 2.0 0.0
10.0 2.0 0.0
10.5 2.0 0.0
11.0 2.0 0.0
11.5 2.0 0.0
12.0 2.0 0.0
12.5 2.0 0.0
13.0 2.0 0.0
13.5 2.0 0.0
14.0 2.0 0.0
14.5 2.0 0.0
15.0 2.0 0.0
15.5 2.0 0.0
16.0 2.0 0.0
</DataArray>
</Points>
<Cells>
<DataArray type="Int64" Name="connectivity" format="ascii">
0 1 34 33 
1 2 35 34 
2 3 36 35 
3 4 37 36 
4 5 38 37 
5 6 39 38 
6 7 40 39 
7 8 41 40 
8 9 42 41 
9 10 43 42 
10 11 44 43 
11 12 45 44 
12 13 46 45 
13 14 47 46 
14 15 48 47 
15 16 49 48 
16 17 50 49 
17 18 51 50 
18 19 52 51 
19 20 53 52 
20 21 54 53 
21 22 55 54 
22 23 56 55 
23 24 57 56 
24 25 58 57 
25 26 59 58 
26 27 60 59 
27 28 61 60 
28 29 62 61 
29 30 63 62 
30 31 64 63 
31 32 65 64 
33 34 67 66 
34 35 68 67 
35 36 69 68 
36 37 70 69 
37 38 71 70 
38 39 72 71 
39 40 73 72 
40 41 74 73 
41 42 75 74 
42 43 76 75 
43 44 77 76 