<?xml version="1.0"?>
<VTKFile type="UnstructuredGrid" version="0.1" byte_order="LittleEndian" compressor="vtkZLibDataCompressor">
<UnstructuredGrid>
<Piece NumberOfPoints="297" NumberOfCells="256">
<PointData>
<DataArray type="Float64" Name="displacement" NumberOfComponents="3" format="ascii" >
0.0 -0.0126  0.
-0.0201665094917 -0.0169480570185  0.
-0.039731162691 -0.0263991433811  0.
-0.058653881573 -0.0406766152387  0.
-0.0769309064707 -0.0596110074917  0.
-0.0945643322293 -0.0830352134214  0.
-0.111555473423 -0.11078755107  0.
-0.127905030027 -0.142707318187  0.
-0.143613292862 -0.178634200736  0.
-0.158680367811 -0.218407942797  0.
-0.173106286232 -0.261868285074  0.
-0.186891054701 -0.308854954762  0.
-0.200034673195 -0.359207670405  0.
-0.212537140721 -0.412766146345  0.
-0.224398456574 -0.469370095244  0.
-0.235618620402 -0.528859229192  0.
-0.246197632056 -0.591073260113  0.
-0.256135491497 -0.65585189988  0.
-0.265432198781 -0.723034860313  0.
-0.274087754191 -0.792461853174  0.
-0.282102158596 -0.863972590295  0.
-0.289475414236 -0.937406784283  0.
-0.296207525922 -1.01260415096  0.
-0.30229850154 -1.08940441629  0.
-0.307748346281 -1.16764733286  0.
-0.312557032226 -1.24717271284  0.
-0.316724390076 -1.32782046727  0.
-0.320249808187 -1.4094306173  0.
-0.323131446393 -1.4918428502  0.
-0.325364697377 -1.57489573021  0.
-0.326937861979 -1.65841664563  0.
-0.327832788775 -1.74222606282  0.
-0.328057239009 -1.8258094092  0.
0.001320703125 -0.0070875  0.
-0.0138620962701 -0.0117320536126  0.
-0.0285223388687 -0.0213468298151  0.
-0.0427056259329 -0.0357956123358  0.
-0.056409708905 -0.054898386363  0.
-0.0696334287879 -0.078491046976  0.
-0.0823763684651 -0.106411698433  0.
-0.0946384377756 -0.138499767103  0.
-0.106419627347 -0.174594947019  0.
-0.117719942737 -0.214536988528  0.
-0.128539389198 -0.258165631797  0.
-0.138877969602 -0.305320603369  0.
-0.148735685208 -0.355841621279  0.
-0.158112536481 -0.409568399628  0.
-0.167008523562 -0.466340650979  0.
-0.175423646485 -0.525998087389  0.
-0.183357905254 -0.588380420777  0.
-0.190811299876 -0.653327363015  0.
-0.197783830367 -0.720678625928  0.
-0.204275496758 -0.790273921273  0.
-0.210286299061 -0.861952960836  0.
-0.215816237136 -0.935555457029  0.
-0.220865310208 -1.01092112508  0.
-0.225433515546 -1.08788968939  0.
-0.229520845343 -1.16630089931  0.
-0.233127280647 -1.24599456047  0.
-0.236252783742 -1.32681058451  0.
-0.238897303065 -1.40858898009  0.
-0.241060868815 -1.49116966779  0.
-0.24274422083 -1.57439047436  0.
-0.243951019621 -1.65808500674  0.
-0.24469891421 -1.74204299442  0.
-0.244925354203 -1.826122883  0.
0.001509375 -0.00315  0.
-0.0086203729841 -0.00797281817201  0.
-0.018406405263 -0.0177381800589  0.
-0.0278606506571 -0.0323099993989  0.
-0.0369944702696 -0.0515333738339  0.
-0.0458088649347 -0.0752457944613  0.
-0.054303499326 -0.10328635031  0.
-0.0624779566852 -0.135494468641  0.
-0.070332000003 -0.171709795099  0.
-0.0778655227394 -0.211772027683  0.
-0.0850784846188 -0.255520879718  0.
-0.0919708729386 -0.302796065874  0.
-0.0985426846856 -0.353437299879  0.
-0.104793919615 -0.407284294522  0.
-0.110724578003 -0.464176762086  0.
-0.116334660082 -0.523954414625  0.
-0.121624165969 -0.586456964104  0.
-0.126593095686 -0.651524122463  0.
-0.131241449142 -0.718995601628  0.
-0.135569226016 -0.788711113553  0.
-0.139576425509 -0.860510370332  0.
-0.143263045992 -0.934233084548  0.
-0.146629085095 -1.00971897017  0.
-0.149674542457 -1.08680774456  0.
-0.152399432299 -1.16533913159  0.
-0.154803824793 -1.24515286474  0.
-0.156887958895 -1.3260886732  0.
-0.158652502421 -1.40798622689  0.
-0.16009905184 -1.49068476106  0.
-0.161230614282 -1.57402248158  0.
-0.162051472579 -1.65783164966  0.
-0.16254766832 -1.74195279285  0.
-0.162693773342 -1.82628599865  0.
0.000943359375 -0.0007875  0.
-0.00412367947971 -0.00570983887798  0.
-0.0090188717573 -0.0155669773434  0.
-0.0137474601473 -0.0302185891189  0.
-0.0183139203405 -0.0495148986709  0.
-0.0227206018717 -0.0732990980234  0.
-0.0269676192649 -0.101411366749  0.
-0.0310547146727 -0.133691384117  0.
-0.0349816867259 -0.169978736822  0.
-0.038748432796 -0.210113060518  0.
-0.0423549102758 -0.253934030179  0.
-0.0458011042595 -0.301281343202  0.
-0.0490870105233 -0.351994706659  0.
-0.0522126282917 -0.405913831215  0.
-0.0551779576441 -0.462878428633  0.
-0.0579829987508 -0.522728210921  0.
-0.0606277517124 -0.585302890106  0.
-0.0631122165419 -0.650442178214  0.
-0.0654363931353 -0.717985787323  0.
-0.0676002811682 -0.787773429654  0.
-0.0696038799018 -0.859644817669  0.
-0.0714471880356 -0.933439663937  0.
-0.0731302043509 -1.00899767994  0.
-0.0746529317831 -1.08615857117  0.
-0.0760153925141 -1.16476202214  0.
-0.0772176725033 -1.24464765658  0.
-0.0782600319403 -1.32565495498  0.
-0.0791431296192 -1.4076230965  0.
-0.0798683089704 -1.49039091943  0.
-0.0804374094295 -1.57379709994  0.
-0.0808487851307 -1.65768446905  0.
-0.0810945471485 -1.7419122666  0.
-0.0811671461129 -1.82636539278  0.
0.0 0.0  0.
8.13739069424e-17 -0.00495465614803  0.
1.69051304566e-16 -0.0148423138585  0.
2.61070325483e-16 -0.0295210839924  0.
3.53483949038e-16 -0.0488421887547  0.
4.46317330972e-16 -0.0726502853393  0.
5.4056672787e-16 -0.100786426281  0.
6.36074683659e-16 -0.133090378876  0.
7.29804951884e-16 -0.169401726057  0.
8.2285006573e-16 -0.209560074093  0.
9.21211707948e-16 -0.253405080927  0.
1.01944435326e-15 -0.300776435671  0.
1.10139883366e-15 -0.351513842183  0.
1.18846929234e-15 -0.405457010059  0.
1.27556415e-15 -0.462445650788  0.
1.3661696902e-15 -0.522319476343  0.
1.44869223745e-15 -0.584918198775  0.
1.54086556413e-15 -0.650081530153  0.
1.62813356688e-15 -0.717649182624  0.
1.69470175159e-15 -0.787460868531  0.
1.74580133993e-15 -0.859356300483  0.
1.84294469899e-15 -0.933175190973  0.
1.96343031929e-15 -1.0087572501  0.
2.05850062651e-15 -1.08594217738  0.
2.13493360803e-15 -1.16456963777  0.
2.16153690306e-15 -1.24447920381  0.
2.21942736662e-15 -1.32551023487  0.
2.27002911751e-15 -1.40750172653  0.
2.29798417734e-15 -1.49029228359  0.
2.30651017142e-15 -1.57372175719  0.
2.33955785778e-15 -1.65763688697  0.
2.38607574267e-15 -1.7418998887  0.
2.40659476879e-15 -1.826389754  0.
-0.000943359375 -0.0007875  0.
0.00412367947971 -0.00570983887798  0.
0.0090188717573 -0.0155669773434  0.
0.0137474601473 -0.0302185891189  0.
0.0183139203405 -0.0495148986709  0.
0.0227206018717 -0.0732990980234  0.
0.0269676192649 -0.101411366749  0.
0.0310547146727 -0.133691384117  0.
0.0349816867259 -0.169978736822  0.
0.038748432796 -0.210113060518  0.
0.0423549102758 -0.253934030179  0.
0.0458011042595 -0.301281343202  0.
0.0490870105233 -0.351994706659  0.
0.0522126282917 -0.405913831215  0.
0.0551779576441 -0.462878428633  0.
0.0579829987508 -0.522728210921  0.
0.0606277517124 -0.585302890106  0.
0.0631122165419 -0.650442178214  0.
0.0654363931353 -0.717985787323  0.
0.0676002811682 -0.787773429654  0.
0.0696038799018 -0.859644817669  0.
0.0714471880356 -0.933439663937  0.
0.0731302043509 -1.00899767994  0.
0.0746529317832 -1.08615857117  0.
0.0760153925141 -1.16476202214  0.
0.0772176725033 -1.24464765658  0.
0.0782600319403 -1.32565495498  0.
0.0791431296192 -1.4076230965  0.
0.0798683089704 -1.49039091943  0.
0.0804374094295 -1.57379709994  0.
0.0808487851307 -1.65768446905  0.
0.0810945471485 -1.7419122666  0.
0.0811671461129 -1.82636539278  0.
-0.001509375 -0.00315  0.
0.0086203729841 -0.00797281817201  0.
0.018406405263 -0.0177381800589  0.
0.0278606506571 -0.0323099993989  0.
0.0369944702696 -0.0515333738339  0.
0.0458088649347 -0.0752457944613  0.
0.054303499326 -0.10328635031  0.
0.0624779566852 -0.135494468641  0.
0.070332000003 -0.171709795099  0.
0.0778655227394 -0.211772027683  0.
0.0850784846188 -0.255520879718  0.
0.0919708729386 -0.302796065874  0.
0.0985426846856 -0.353437299879  0.
0.104793919615 -0.407284294522  0.
0.110724578003 -0.464176762086  0.
0.116334660082 -0.523954414625  0.
0.121624165969 -0.586456964104  0.
0.126593095686 -0.651524122463  0.
0.131241449142 -0.718995601628  0.
0.135569226016 -0.788711113553  0.
0.139576425509 -0.860510370332  0.
0.143263045992 -0.934233084548  0.
0.146629085095 -1.00971897017  0.
0.149674542457 -1.08680774456  0.
0.152399432299 -1.16533913159  0.
0.154803824793 -1.24515286474  0.
0.156887958895 -1.3260886732  0.
0.158652502421 -1.40798622689  0.
0.16009905184 -1.49068476106  0.
0.161230614282 -1.57402248158  0.
0.162051472579 -1.65783164966  0.
0.16254766832 -1.74195279285  0.
0.162693773342 -1.82628599865  0.
-0.001320703125 -0.0070875  0.
0.0138620962701 -0.0117320536126  0.
0.0285223388687 -0.0213468298151  0.
0.0427056259329 -0.0357956123358  0.
0.056409708905 -0.054898386363  0.
0.0696334287879 -0.078491046976  0.
0.0823763684651 -0.106411698433  0.
0.0946384377756 -0.138499767103  0.
0.106419627347 -0.174594947019  0.
0.117719942737 -0.214536988528  0.
0.128539389198 -0.258165631797  0.
0.138877969602 -0.305320603369  0.
0.148735685208 -0.355841621279  0.
0.158112536481 -0.409568399628  0.
0.167008523562 -0.466340650979  0.
0.175423646485 -0.525998087389  0.
0.183357905254 -0.588380420777  0.
0.190811299876 -0.653327363015  0.
0.197783830367 -0.720678625928  0.
0.204275496758 -0.790273921273  0.
0.210286299061 -0.861952960836  0.
0.215816237136 -0.935555457029  0.
0.220865310208 -1.01092112508  0.
0.225433515546 -1.08788968939  0.
0.229520845343 -1.16630089931  0.
0.233127280647 -1.24599456047  0.
0.236252783742 -1.32681058451  0.
0.238897303065 -1.40858898009  0.
0.241060868815 -1.49116966779  0.
0.24274422083 -1.57439047436  0.
0.243951019621 -1.65808500674  0.
0.24469891421 -1.74204299442  0.
0.244925354203 -1.826122883  0.
0.0 -0.0126  0.
0.0201665094917 -0.0169480570185  0.
0.039731162691 -0.0263991433811  0.
0.058653881573 -0.0406766152387  0.
0.0769309064707 -0.0596110074917  0.
0.0945643322293 -0.0830352134214  0.
0.111555473423 -0.11078755107  0.
0.127905030027 -0.142707318187  0.
0.143613292862 -0.178634200736  0.
0.158680367811 -0.218407942797  0.
0.173106286232 -0.261868285074  0.
0.186891054701 -0.308854954762  0.
0.200034673195 -0.359207670405  0.
0.212537140721 -0.412766146345  0.
0.224398456574 -0.469370095244  0.
0.235618620402 -0.528859229192  0.
0.246197632056 -0.591073260113  0.
0.256135491497 -0.65585189988  0.
0.265432198781 -0.723034860313  0.
0.274087754191 -0.792461853174  0.
0.282102158596 -0.863972590295  0.
0.289475414236 -0.937406784283  0.
0.296207525922 -1.01260415096  0.
0.30229850154 -1.08940441629  0.
0.307748346281 -1.16764733286  0.
0.312557032226 -1.24717271284  0.
0.316724390076 -1.32782046727  0.
0.320249808187 -1.4094306173  0.
0.323131446393 -1.4918428502  0.
0.325364697377 -1.57489573021  0.
0.326937861979 -1.65841664563  0.
0.327832788775 -1.74222606282  0.
0.328057239009 -1.8258094092  0.
</DataArray>
<DataArray type="Float64" Name="Nodal_sigma_xx" NumberOfComponents="1" format="ascii" >
-35308.5251265 
-34766.5706436 
-33665.0613801 
-32543.4239923 
-31419.3022141 
-30295.7057778 
-29172.9010683 
-28050.5581117 
-26928.427972 
-25806.3794293 
-24684.3571925 
-23562.341438 
-22440.3263677 
-21318.3108155 
-20196.2948185 
-19074.2785782 
-17952.2622438 
-16830.2459351 
-15708.2298431 
-14586.2144038 
-13464.2005502 
-12342.189846 
-11220.1834844 
-10098.1766605 
-8976.13839127 
-7853.95378015 
-6731.28123718 
-5607.27445978 
-4480.12614968 
-3347.23433657 
-2207.30998452 
-1087.04453088 
-538.474557208 
-30293.5629737 
-29811.7018233 
-28850.4326046 
-27890.3846871 
-26928.8131894 
-25966.9267659 
-25005.0567352 
-24043.2544595 
-23081.4947748 
-22119.7553079 
-21158.0237378 
-20196.2947676 
-19234.5664628 
-18272.838243 
-17311.1099846 
-16349.3816874 
-15387.6533739 
-14425.9250728 
-13464.1968308 
-12502.4687371 
-11540.7409323 
-10579.0135 
-9617.28590075 
-8655.55499346 
-7693.80948079 
-6732.01640853 
-5770.09627222 
-4807.89016521 
-3845.24488619 
-2882.48989743 
-1922.96127362 
-965.346983228 
-485.951146016 
-20226.7416471 
-19889.9860082 
-19230.8194527 
-18588.827652 
-17949.6123265 
-17309.9179706 
-16669.5073346 
-16028.6635553 
-15387.6197185 
-14746.498429 
-14105.3520065 
-13464.1992913 
-12823.0458567 
-12181.8928496 
-11540.7402541 
-10899.5878863 
-10258.4356067 
-9617.28330191 
-8976.1307908 
-8334.97766252 
-7693.8230454 
-7052.6655002 
-6411.50401382 
-5770.34342943 
-5129.21361528 
-4488.22436041 
-3847.6980282 
-3208.43529373 
-2572.08650564 
-1941.11482925 
-1315.49062832 
-673.475831444 
-343.28768767 
-10117.2401573 
-9949.33666294 
-9617.63627987 
-9293.5982267 
-8973.75256055 
-8654.33755477 
-8334.47342544 
-8014.22632373 
-7693.77688711 
-7373.24154183 
-7052.67547094 
-6732.10041044 
-6411.52355046 
-6090.94675361 
-5770.37026994 
-5449.79399592 
-5129.21780548 
-4808.64157519 
-4488.06510467 
-4167.48797552 
-3846.90940183 
-3526.32839634 
-3205.74551926 
-2885.17007008 
-2564.64259698 
-2244.29374935 
-1924.47265747 
-1605.95385922 
-1290.00482866 
-977.133620641 
-661.643764186 
-335.15880279 
-168.438635137 
1.75987224793e-10 
1.79170456249e-10 
1.84400050784e-10 
1.87355908565e-10 
1.88265403267e-10 
1.88720150618e-10 
1.8962964532e-10 
1.92926563614e-10 
1.98951966013e-10 
1.97019289772e-10 
1.9110757421e-10 
1.89515958482e-10 
1.8064838514e-10 
1.68597580341e-10 
1.5768364392e-10 
1.56319401867e-10 
1.66210156749e-10 
1.62458491104e-10 
1.42790668178e-10 
1.12663656182e-10 
1.16529008665e-10 
1.7462298274e-10 
1.81103132491e-10 
1.38243194669e-10 
1.20849108498e-10 
1.28409283207e-10 
1.15903731057e-10 
8.62883098307e-11 
8.5776719061e-11 
1.01792352325e-10 
1.10752296223e-10 
8.13997758087e-11 
5.26085841557e-11 
10117.2401573 
9949.33666294 
9617.63627987 
9293.5982267 
8973.75256055 
8654.33755477 
8334.47342544 
8014.22632373 
7693.77688711 
7373.24154183 
7052.67547094 
6732.10041044 
6411.52355046 
6090.94675361 
5770.37026994 
5449.79399592 
5129.21780548 
4808.64157519 
4488.06510467 
4167.48797552 
3846.90940183 
3526.32839634 
3205.74551926 
2885.17007008 
2564.64259698 
2244.29374935 
1924.47265747 
1605.95385922 
1290.00482866 
977.133620641 
661.643764187 
335.15880279 
168.438635137 
20226.7416471 
19889.9860082 
19230.8194527 
18588.827652 
17949.6123265 
17309.9179706 
16669.5073346 
16028.6635553 
15387.6197185 
14746.498429 
14105.3520065 
13464.1992913 
12823.0458567 
12181.8928496 
11540.7402541 
10899.5878863 
10258.4356067 
9617.28330191 
8976.13079081 
8334.97766252 
7693.8230454 
7052.6655002 
6411.50401382 
5770.34342943 
5129.21361528 
4488.22436041 
3847.6980282 
3208.43529373 
2572.08650564 
1941.11482925 
1315.49062832 
673.475831444 
343.28768767 
30293.5629737 
29811.7018233 
28850.4326046 
27890.3846871 
26928.8131894 
25966.9267659 
25005.0567352 
24043.2544595 
23081.4947748 
22119.7553079 
21158.0237378 
20196.2947676 
19234.5664628 
18272.8382431 
17311.1099846 
16349.3816874 
15387.6533739 
14425.9250728 
13464.1968308 
12502.4687371 
11540.7409323 
10579.0135 
9617.28590075 
8655.55499346 
7693.80948079 
6732.01640853 
5770.09627222 
4807.89016521 
3845.24488619 
2882.48989743 
1922.96127363 
965.346983228 
485.951146016 
35308.5251265 
34766.5706436 
33665.0613801 
32543.4239923 
31419.3022141 
30295.7057778 
29172.9010683 
28050.5581117 
26928.427972 
25806.3794293 
24684.3571925 
23562.341438 
22440.3263677 
21318.3108155 
20196.2948185 
19074.2785782 
17952.2622438 
16830.2459351 
15708.2298431 
14586.2144038 
13464.2005502 
12342.189846 
11220.1834844 
10098.1766605 
8976.13839127 
7853.95378015 
6731.28123718 
5607.27445978 
4480.12614968 
3347.23433657 
2207.30998452 
1087.04453088 
538.474557208 
</DataArray>
<DataArray type="Float64" Name="Nodal_sigma_yy" NumberOfComponents="1" format="ascii" >
135.945867893 
68.4389957892 
1.29830636391 
0.443052526195 
-0.584861387236 
-0.308404660196 
-0.158918008268 
-0.0631722839639 
-0.0219985479941 
-0.00606315746245 
-0.00104975821478 
0.000163422436572 
0.000271612976803 
0.000169150094052 
8.01952576239e-05 
3.01775792195e-05 
-2.71697990684e-06 
-5.43010696674e-05 
-0.000184351627468 
-0.000497626793276 
-0.00112822315123 
-0.002033198665 
-0.00209075981024 
0.00362302253689 
0.0316740208574 
0.124390237171 
0.393174340272 
0.987451128388 
2.59109297473 
3.49619678698 
13.6080134034 
-133.962416359 
-291.947764902 
124.550531113 
71.8497067867 
10.8155513032 
0.841758759204 
-0.81842795099 
-0.659945266993 
-0.349514114712 
-0.149965925773 
-0.0544492637108 
-0.016287073729 
-0.0034427903438 
-1.58807240496e-05 
0.000502070961261 
0.000359747364996 
0.000181132009857 
6.89644053864e-05 
-1.17839211953e-05 
-0.000139587310912 
-0.000446853970516 
-0.00114859983722 
-0.00245930418191 
-0.00399604195985 
-0.00251065861039 
0.0148836410955 
0.0877500004947 
0.317962952967 
0.927779927383 
2.29895610467 
4.8808640494 
7.64862145659 
2.23924954168 
-125.867479551 
-247.445080751 
93.0848732027 
64.0746827905 
20.4898879219 
2.69835380267 
-0.896809505534 
-1.04607092248 
-0.603373934122 
-0.27210350391 
-0.103068032441 
-0.0325698448775 
-0.00774897444501 
-0.000644931536442 
0.000697621982567 
0.000592721450005 
0.000316441475093 
0.000121783177462 
-2.96696796624e-05 
-0.000271123835518 
-0.000829669477667 
-0.00204651060261 
-0.0041527429938 
-0.00602705538023 
-0.000805662703698 
0.0366572646915 
0.180026006513 
0.611313271333 
1.70222996931 
4.00568166303 
7.56273014637 
9.17427221635 
-13.3527834633 
-97.1718625192 
-158.877287906 
48.9089647946 
35.7465632067 
14.4115738428 
3.14105512864 
-0.427096395893 
-0.76942814252 
-0.480290999407 
-0.224746618943 
-0.0877064650016 
-0.0287097462599 
-0.00729797403085 
-0.0009001064724 
0.000449266243137 
0.000453972400798 
0.000254185915388 
9.8629015298e-05 
-2.94548953477e-05 
-0.000234658309694 
-0.000696777193987 
-0.00166857072614 
-0.00324679656797 
-0.00425065931758 
0.00156929609459 
0.0360415612843 
0.161156979124 
0.525375979034 
1.41769080313 
3.19297350353 
5.54347326153 
4.0321476504 
-12.7046511904 
-51.3437364832 
-75.957198667 
4.22346602136e-11 
3.3580249692e-11 
1.92557081391e-11 
1.07007736005e-11 
7.13384906703e-12 
7.11963821232e-12 
8.28492829896e-12 
1.27897692437e-11 
2.84785528493e-11 
2.43716158366e-11 
1.21360699268e-11 
2.91038304567e-11 
1.94830818145e-11 
-2.58211230175e-11 
-5.67368374504e-11 
-5.0270898555e-11 
-3.34452465722e-11 
-4.84234874421e-11 
-6.82547351971e-11 
-7.72431008045e-11 
-1.17701404179e-10 
-1.0027179087e-10 
-5.66515723222e-11 
-6.95141721963e-11 
-1.92610372096e-11 
6.62367938276e-11 
6.25313134606e-11 
5.36637401183e-11 
1.64510183254e-10 
2.52581511262e-10 
2.27517560347e-10 
1.35441879934e-10 
7.12958581062e-11 
-48.9089647945 
-35.7465632067 
-14.4115738428 
-3.14105512863 
0.4270963959 
0.769428142528 
0.480290999416 
0.224746618947 
0.0877064649946 
0.0287097462426 
0.00729797401257 
0.000900106471775 
-0.000449266247074 
-0.000453972444923 
-0.000254185968146 
-9.86290374883e-05 
2.94548595434e-05 
0.000234658179245 
0.000696777015229 
0.00166857055849 
0.00324679632132 
0.00425065912894 
-0.00156929619126 
-0.0360415613955 
-0.161156979188 
-0.525375979112 
-1.41769080309 
-3.19297350324 
-5.54347326116 
-4.03214765005 
12.7046511908 
51.3437364835 
75.9571986671 
-93.0848732026 
-64.0746827905 
-20.4898879219 
-2.69835380267 
0.896809505533 
1.04607092248 
0.603373934113 
0.272103503898 
0.103068032442 
0.0325698448859 
0.00774897444416 
0.000644931516945 
-0.000697622017469 
-0.000592721522651 
-0.000316441562347 
-0.000121783201166 
2.96697193107e-05 
0.000271123853651 
0.000829669470164 
0.00204651052925 
0.00415274291794 
0.0060270554844 
0.000805662736553 
-0.0366572648681 
-0.180026006664 
-0.611313271503 
-1.70222996948 
-4.00568166293 
-7.56273014614 
-9.17427221622 
13.3527834634 
97.1718625193 
158.877287906 
-124.550531113 
-71.8497067866 
-10.8155513032 
-0.841758759201 
0.818427950988 
0.659945266991 
0.349514114708 
0.149965925771 
0.0544492637309 
0.0162870737579 
0.00344279033447 
1.58806800528e-05 
-0.000502071025835 
-0.000359747457765 
-0.000181132127693 
-6.89645054877e-05 
1.17838808933e-05 
0.000139587359001 
0.000446854036568 
0.00114859983165 
0.00245930426888 
0.00399604216307 
0.00251065862614 
-0.014883641283 
-0.087750000654 
-0.317962953053 
-0.927779927494 
-2.29895610484 
-4.88086404945 
-7.64862145655 
-2.23924954172 
125.867479551 
247.445080751 
-135.945867893 
-68.4389957892 
-1.29830636391 
-0.443052526196 
0.584861387233 
0.308404660191 
0.158918008281 
0.0631722839671 
0.0219985479616 
0.00606315741993 
0.00104975813701 
-0.000163422545029 
-0.000271613082987 
-0.000169150170905 
-8.01953108294e-05 
-3.01776758533e-05 
2.7168152883e-06 
5.43009655303e-05 
0.000184351553571 
0.000497626748029 
0.00112822321898 
0.00203319868638 
0.00209075969599 
-0.00362302264205 
-0.0316740209626 
-0.124390237292 
-0.393174340204 
-0.987451128439 
-2.59109297489 
-3.49619678696 
-13.6080134032 
133.962416359 
291.947764903 
</DataArray>
<DataArray type="Float64" Name="Nodal_sigma_xy" NumberOfComponents="1" format="ascii" >
-525.959340191 
-561.561501108 
-600.346237922 
-603.247690472 
-602.399732705 
-601.489661785 
-600.984477409 
-600.7583222 
-600.672630706 
-600.645465112 
-600.638954549 
-600.638383412 
-600.638948186 
-600.639434867 
-600.639697605 
-600.639811425 
-600.639840921 
-600.639787316 
-600.639551898 
-600.638860444 
-600.637165764 
-600.633741636 
-600.628817093 
-600.628364567 
-600.659265485 
-600.809458625 
-601.318213277 
-602.744626627 
-606.244297837 
-613.607949526 
-625.926316465 
-585.416063998 
-537.490610403 
-1039.32132848 
-1055.72861798 
-1077.30525134 
-1082.93418468 
-1083.04729931 
-1082.3845487 
-1081.89715075 
-1081.65172954 
-1081.55022795 
-1081.51479785 
-1081.50478626 
-1081.50296224 
-1081.50315993 
-1081.50357268 
-1081.5038369 
-1081.50396 
-1081.50398772 
-1081.50391137 
-1081.5036189 
-1081.50282941 
-1081.50105996 
-1081.49794148 
-1081.49497691 
-1081.50180853 
-1081.55427063 
-1081.75830785 
-1082.37791256 
-1083.96154668 
-1087.32482257 
-1092.73190148 
-1093.62515927 
-1067.57395077 
-1043.7967721 
-1894.51072965 
-1885.7894552 
-1879.1494826 
-1882.14213252 
-1883.16959986 
-1883.22514456 
-1883.10636164 
-1883.01655875 
-1882.9713099 
-1882.95268729 
-1882.94622893 
-1882.94442208 
-1882.94410255 
-1882.94414512 
-1882.94422239 
-1882.94426719 
-1882.94427332 
-1882.94422811 
-1882.94408581 
-1882.94375901 
-1882.94317508 
-1882.94259434 
-1882.94375315 
-1882.95317876 
-1882.99031636 
-1883.10387911 
-1883.39410151 
-1883.9966263 
-1884.79832113 
-1884.0623682 
-1876.21748264 
-1880.60781218 
-1891.70215399 
-2405.99117152 
-2389.58388202 
-2368.00724866 
-2362.37831532 
-2362.26520069 
-2362.92795129 
-2363.41534925 
-2363.66077045 
-2363.76227205 
-2363.79770215 
-2363.80771374 
-2363.80953776 
-2363.80934007 
-2363.80892732 
-2363.8086631 
-2363.80854 
-2363.80851228 
-2363.80858863 
-2363.8088811 
-2363.80967059 
-2363.81144004 
-2363.81455852 
-2363.81752309 
-2363.81069147 
-2363.75822937 
-2363.55419215 
-2362.93458744 
-2361.35095332 
-2357.98767743 
-2352.58059852 
-2351.68734073 
-2377.73854923 
-2401.5157279 
-2575.6442005 
-2557.4845885 
-2531.97979688 
-2523.09304448 
-2521.88606757 
-2522.68504909 
-2523.4277993 
-2523.8335603 
-2524.0097495 
-2524.0741603 
-2524.09358758 
-2524.09777242 
-2524.09784671 
-2524.09727488 
-2524.09685762 
-2524.0966542 
-2524.09661244 
-2524.09675646 
-2524.09727648 
-2524.09862154 
-2524.10148407 
-2524.10606969 
-2524.1086766 
-2524.09027791 
-2523.98510179 
-2523.60778316 
-2522.5185837 
-2519.88712077 
-2514.7840599 
-2508.89231408 
-2512.26371825 
-2543.99331165 
-2569.73008161 
-2405.99117152 
-2389.58388202 
-2368.00724866 
-2362.37831532 
-2362.26520069 
-2362.92795129 
-2363.41534925 
-2363.66077045 
-2363.76227205 
-2363.79770215 
-2363.80771374 
-2363.80953776 
-2363.80934007 
-2363.80892732 
-2363.8086631 
-2363.80854 
-2363.80851228 
-2363.80858863 
-2363.8088811 
-2363.80967059 
-2363.81144004 
-2363.81455852 
-2363.81752309 
-2363.81069147 
-2363.75822937 
-2363.55419215 
-2362.93458744 
-2361.35095332 
-2357.98767743 
-2352.58059852 
-2351.68734073 
-2377.73854923 
-2401.5157279 
-1894.51072965 
-1885.7894552 
-1879.1494826 
-1882.14213252 
-1883.16959986 
-1883.22514456 
-1883.10636164 
-1883.01655875 
-1882.9713099 
-1882.95268729 
-1882.94622893 
-1882.94442208 
-1882.94410255 
-1882.94414512 
-1882.94422239 
-1882.94426719 
-1882.94427332 
-1882.94422811 
-1882.94408581 
-1882.94375901 
-1882.94317508 
-1882.94259434 
-1882.94375315 
-1882.95317876 
-1882.99031636 
-1883.10387911 
-1883.39410151 
-1883.9966263 
-1884.79832113 
-1884.0623682 
-1876.21748264 
-1880.60781218 
-1891.70215399 
-1039.32132848 
-1055.72861798 
-1077.30525134 
-1082.93418468 
-1083.04729931 
-1082.3845487 
-1081.89715075 
-1081.65172954 
-1081.55022795 
-1081.51479785 
-1081.50478626 
-1081.50296224 
-1081.50315993 
-1081.50357268 
-1081.5038369 
-1081.50396 
-1081.50398772 
-1081.50391137 
-1081.5036189 
-1081.50282941 
-1081.50105996 
-1081.49794148 
-1081.49497691 
-1081.50180853 
-1081.55427063 
-1081.75830785 
-1082.37791256 
-1083.96154668 
-1087.32482257 
-1092.73190148 
-1093.62515927 
-1067.57395077 
-1043.7967721 
-525.959340191 
-561.561501108 
-600.346237922 
-603.247690472 
-602.399732705 
-601.489661785 
-600.984477409 
-600.7583222 
-600.672630706 
-600.645465112 
-600.638954549 
-600.638383412 
-600.638948186 
-600.639434867 
-600.639697605 
-600.639811425 
-600.639840921 
-600.639787317 
-600.639551898 
-600.638860444 
-600.637165764 
-600.633741636 
-600.628817093 
-600.628364567 
-600.659265485 
-600.809458625 
-601.318213277 
-602.744626627 
-606.244297837 
-613.607949526 
-625.926316465 
-585.416063998 
-537.490610403 
</DataArray>
</PointData>
<CellData>
</CellData>
<Points>
<DataArray type="Float64" Name="Points" NumberOfComponents="3" format="ascii">
0.0 -2.0 0.0
0.5 -2.0 0.0
1.0 -2.0 0.0
1.5 -2.0 0.0
2.0 -2.0 0.0
2.5 -2.0 0.0
3.0 -2.0 0.0
3.5 -2.0 0.0
4.0 -2.0 0.0
4.5 -2.0 0.0
5.0 -2.0 0.0
5.5 -2.0 0.0
6.0 -2.0 0.0
6.5 -2.0 0.0
7.0 -2.0 0.0
7.5 -2.0 0.0
8.0 -2.0 0.0
8.5 -2.0 0.0
9.0 -2.0 0.0
9.5 -2.0 0.0
10.0 -2.0 0.0
10.5 -2.0 0.0
11.0 -2.0 0.0
11.5 -2.0 0.0
12.0 -2.0 0.0
12.5 -2.0 0.0
13.0 -2.0 0.0
13.5 -2.0 0.0
14.0 -2.0 0.0
14.5 -2.0 0.0
15.0 -2.0 0.0
15.5 -2.0 0.0
16.0 -2.0 0.0
0.0 -1.5 0.0
0.5 -1.5 0.0
1.0 -1.5 0.0
1.5 -1.5 0.0
2.0 -1.5 0.0
2.5 -1.5 0.0
3.0 -1.5 0.0
3.5 -1.5 0.0
4.0 -1.5 0.0
4.5 -1.5 0.0
5.0 -1.5 0.0
5.5 -1.5 0.0
6.0 -1.5 0.0
6.5 -1.5 0.0
7.0 -1.5 0.0
7.5 -1.5 0.0
8.0 -1.5 0.0
8.5 -1.5 0.0
9.0 -1.5 0.0
9.5 -1.5 0.0
10.0 -1.5 0.0
10.5 -1.5 0.0
11.0 -1.5 0.0
11.5 -1.5 0.0
12.0 -1.5 0.0
12.5 -1.5 0.0
13.0 -1.5 0.0
13.5 -1.5 0.0
14.0 -1.5 0.0
14.5 -1.5 0.0
15.0 -1.5 0.0
15.5 -1.5 0.0
16.0 -1.5 0.0
0.0 -1.0 0.0
0.5 -1.0 0.0
1.0 -1.0 0.0
1.5 -1.0 0.0
2.0 -1.0 0.0
2.5 -1.0 0.0
3.0 -1.0 0.0
3.5 -1.0 0.0
4.0 -1.0 0.0
4.5 -1.0 0.0
5.0 -1.0 0.0
5.5 -1.0 0.0
6.0 -1.0 0.0
6.5 -1.0 0.0
7.0 -1.0 0.0
7.5 -1.0 0.0
8.0 -1.0 0.0
8.5 -1.0 0.0
9.0 -1.0 0.0
9.5 -1.0 0.0
10.0 -1.0 0.0
10.5 -1.0 0.0
11.0 -1.0 0.0
11.5 -1.0 0.0
12.0 -1.0 0.0
12.5 -1.0 0.0
13.0 -1.0 0.0
13.5 -1.0 0.0
14.0 -1.0 0.0
14.5 -1.0 0.0
15.0 -1.0 0.0
15.5 -1.0 0.0
16.0 -1.0 0.0
0.0 -0.5 0.0
0.5 -0.5 0.0
1.0 -0.5 0.0
1.5 -0.5 0.0
2.0 -0.5 0.0
2.5 -0.5 0.0
3.0 -0.5 0.0
3.5 -0.5 0.0
4.0 -0.5 0.0
4.5 -0.5 0.0
5.0 -0.5 0.0
5.5 -0.5 0.0
6.0 -0.5 0.0
6.5 -0.5 0.0
7.0 -0.5 0.0
7.5 -0.5 0.0
8.0 -0.5 0.0
8.5 -0.5 0.0
9.0 -0.5 0.0
9.5 -0.5 0.0
10.0 -0.5 0.0
10.5 -0.5 0.0
11.0 -0.5 0.0
11.5 -0.5 0.0
12.0 -0.5 0.0
12.5 -0.5 0.0
13.0 -0.5 0.0
13.5 -0.5 0.0
14.0 -0.5 0.0
14.5 -0.5 0.0
15.0 -0.5 0.0
15.5 -0.5 0.0
16.0 -0.5 0.0
0.0 0.0 0.0
0.5 0.0 0.0
1.0 0.0 0.0
1.5 0.0 0.0
2.0 0.0 0.0
2.5 0.0 0.0
3.0 0.0 0.0
3.5 0.0 0.0
4.0 0.0 0.0
4.5 0.0 0.0
5.0 0.0 0.0
5.5 0.0 0.0
6.0 0.0 0.0
6.5 0.0 0.0
7.0 0.0 0.0
7.5 0.0 0.0
8.0 0.0 0.0
8.5 0.0 0.0
9.0 0.0 0.0
9.5 0.0 0.0
10.0 0.0 0.0
10.5 0.0 0.0
11.0 0.0 0.0
11.5 0.0 0.0
12.0 0.0 0.0
12.5 0.0 0.0
13.0 0.0 0.0
13.5 0.0 0.0
14.0 0.0 0.0
14.5 0.0 0.0
15.0 0.0 0.0
15.5 0.0 0.0
16.0 0.0 0.0
0.0 0.5 0.0
0.5 0.5 0.0
1.0 0.5 0.0
1.5 0.5 0.0
2.0 0.5 0.0
2.5 0.5 0.0
3.0 0.5 0.0
3.5 0.5 0.0
4.0 0.5 0.0
4.5 0.5 0.0
5.0 0.5 0.0
5.5 0.5 0.0
6.0 0.5 0.0
6.5 0.5 0.0
7.0 0.5 0.0
7.5 0.5 0.0
8.0 0.5 0.0
8.5 0.5 0.0
9.0 0.5 0.0
9.5 0.5 0.0
10.0 0.5 0.0
10.5 0.5 0.0
11.0 0.5 0.0
11.5 0.5 0.0
12.0 0.5 0.0
12.5 0.5 0.0
13.0 0.5 0.0
13.5 0.5 0.0
14.0 0.5 0.0
14.5 0.5 0.0
15.0 0.5 0.0
15.5 0.5 0.0
16.0 0.5 0.0
0.0 1.0 0.0
0.5 1.0 0.0
1.0 1.0 0.0
1.5 1.0 0.0
2.0 1.0 0.0
2.5 1.0 0.0
3.0 1.0 0.0
3.5 1.0 0.0
4.0 1.0 0.0
4.5 1.0 0.0
5.0 1.0 0.0
5.5 1.0 0.0
6.0 1.0 0.0
6.5 1.0 0.0
7.0 1.0 0.0
7.5 1.0 0.0
8.0 1.0 0.0
8.5 1.0 0.0
9.0 1.0 0.0
9.5 1.0 0.0
10.0 1.0 0.0
10.5 1.0 0.0
11.0 1.0 0.0
11.5 1.0 0.0
12.0 1.0 0.0
12.5 1.0 0.0
13.0 1.0 0.0
13.5 1.0 0.0
14.0 1.0 0.0
14.5 1.0 0.0
15.0 1.0 0.0
15.5 1.0 0.0
16.0 1.0 0.0
0.0 1.5 0.0
0.5 1.5 0.0
1.0 1.5 0.0
1.5 1.5 0.0
2.0 1.5 0.0
2.5 1.5 0.0
3.0 1.5 0.0
3.5 1.5 0.0
4.0 1.5 0.0
4.5 1.5 0.0
5.0 1.5 0.0
5.5 1.5 0.0
6.0 1.5 0.0
6.5 1.5 0.0
7.0 1.5 0.0
7.5 1.5 0.0
8.0 1.5 0.0
8.5 1.5 0.0
9.0 1.5 0.0
9.5 1.5 0.0
10.0 1.5 0.0
10.5 1.5 0.0
11.0 1.5 0.0
11.5 1.5 0.0
12.0 1.5 0.0
12.5 1.5 0.0
13.0 1.5 0.0
13.5 1.5 0.0
14.0 1.5 0.0
14.5 1.5 0.0
15.0 1.5 0.0
15.5 1.5 0.0
16.0 1.5 0.0
0.0 2.0 0.0
0.5 2.0 0.0
1.0 2.0 0.0
1.5 2.0 0.0
2.0 2.0 0.0
2.5 2.0 0.0
3.0 2.0 0.0
3.5 2.0 0.0
4.0 2.0 0.0
4.5 2.0 0.0
5.0 2.0 0.0
5.5 2.0 0.0
6.0 2.0 0.0
6.5 2.0 0.0
7.0 2.0 0.0
7.5 2.0 0.0
8.0 2.0 0.0
8.5 2.0 0.0
9.0 2.0 0.0
9.5 2.0 0.0
10.0 2.0 0.0
10.5 2.0 0.0
11.0 2.0 0.0
11.5 2.0 0.0
12.0 2.0 0.0
12.5 2.0 0.0
13.0 2.0 0.0
13.5 2.0 0.0
14.0 2.0 0.0
14.5 2.0 0.0
15.0 2.0 0.0
15.5 2.0 0.0
16.0 2.0 0.0
</DataArray>
</Points>
<Cells>
<DataArray type="Int64" Name="connectivity" format="ascii">
0 1 34 33 
1 2 35 34 
2 3 36 35 
3 4 37 36 
4 5 38 37 
5 6 39 38 
6 7 40 39 
7 8 41 40 
8 9 42 41 
9 10 43 42 
10 11 44 43 
11 12 45 44 
12 13 46 45 
13 14 47 46 
14 15 48 47 
15 16 49 48 
16 17 50 49 
17 18 51 50 
18 19 52 51 
19 20 53 52 