<?xml version="1.0"?>
<VTKFile type="UnstructuredGrid" version="0.1" byte_order="LittleEndian" compressor="vtkZLibDataCompressor">
<UnstructuredGrid>
<Piece NumberOfPoints="297" NumberOfCells="256">
<PointData>
<DataArray type="Float64" Name="displacement" NumberOfComponents="3" format="ascii" >
0.0 -0.0234  0.
-0.0374520890561 -0.0314749630343  0.
-0.0737864449976 -0.049026980565  0.
-0.108928637207 -0.0755422854432  0.
-0.142871683446 -0.11070615677  0.
-0.17561947414 -0.154208253497  0.
-0.207174450644 -0.205748309131  0.
-0.237537912908 -0.265027876633  0.
-0.266710401029 -0.331749229938  0.
-0.29469211165 -0.405614750909  0.
-0.321483103002 -0.486326815138  0.
-0.347083387302 -0.573587773129  0.
-0.371492964505 -0.667099959324  0.
-0.394711832767 -0.766565700356  0.
-0.41673999078 -0.871687319739  0.
-0.437577437889 -0.982167139927  0.
-0.457224173819 -1.09770748307  0.
-0.475680198494 -1.21801067121  0.
-0.492945512022 -1.3427790263  0.
-0.509020114925 -1.47171487018  0.
-0.523904008821 -1.60452052483  0.
-0.537597197867 -1.74089831367  0.
-0.550099690997 -1.88055056606  0.
-0.561411502859 -2.02317963026  0.
-0.571532643093 -2.16848790389  0.
-0.580463059849 -2.31617789527  0.
-0.588202438713 -2.46595229637  0.
-0.594749643775 -2.61751400355  0.
-0.600101257588 -2.77056529324  0.
-0.604248723701 -2.9248063561  0.
-0.607170315105 -3.07991662759  0.
-0.60883232201 -3.23556268809  0.
-0.60924915816 -3.3907889028  0.
0.002452734375 -0.0131625  0.
-0.0257438930731 -0.0217880995663  0.
-0.052970057899 -0.0396441125137  0.
-0.0793104481611 -0.0664775657666  0.
-0.104760887966 -0.101954146103  0.
-0.129319224892 -0.145769087241  0.
-0.152984684292 -0.197621725661  0.
-0.175757098726 -0.257213853191  0.
-0.197636450787 -0.32424775875  0.
-0.218622750797 -0.398425835838  0.
-0.23871600851 -0.479450459052  0.
-0.257916229261 -0.567023977685  0.
-0.276223415387 -0.660848725232  0.
-0.29363756775 -0.76062702788  0.
-0.310158686615 -0.866061208961  0.
-0.325786772043 -0.976853590865  0.
-0.340521824044 -1.09270649573  0.
-0.354363842627 -1.2133222456  0.
-0.367312827825 -1.33840316244  0.
-0.379368779693 -1.46765156808  0.
-0.390531698256 -1.60076978441  0.
-0.400801583252 -1.73746013448  0.
-0.410178433243 -1.87742494658  0.
-0.418662243158 -2.02036656601  0.
-0.426252998495 -2.16598738443  0.
-0.432950664058 -2.31398989802  0.
-0.438755169807 -2.46407679981  0.
-0.443666419979 -2.61595096303  0.
-0.447684470657 -2.76931509733  0.
-0.450810695827 -2.9238680238  0.
-0.453051893581 -3.07930072681  0.
-0.454440840675 -3.23522270392  0.
-0.454861372091 -3.39137106842  0.
0.002803125 -0.00585  0.
-0.0160092641133 -0.0148066623194  0.
-0.0341833240599 -0.0329423343951  0.
-0.0517412083631 -0.0600042845979  0.
-0.068704016215 -0.0957048371202  0.
-0.0850736063074 -0.139742189714  0.
-0.100849355891 -0.191817507719  0.
-0.116030490987 -0.25163258462  0.
-0.130616571434 -0.318889619471  0.
-0.144607399373 -0.393290908553  0.
-0.158002900006 -0.474538776619  0.
-0.170803049743 -0.562335550909  0.
-0.183007842987 -0.656383556917  0.
-0.194617279285 -0.756385118399  0.
-0.205631359149 -0.86204255816  0.
-0.216050083009 -0.973058198589  0.
-0.225873451085 -1.08913436191  0.
-0.235101463417 -1.20997337029  0.
-0.243734119835 -1.33527754588  0.
-0.251771419744 -1.46474921088  0.
-0.259213361659 -1.59809068776  0.
-0.266059942557 -1.73500429987  0.
-0.272311158034 -1.87519237318  0.
-0.277967007421 -2.01835723989  0.
-0.283027517127 -2.16420124439  0.
-0.287492817474 -2.3124267488  0.
-0.291363352234 -2.46273610738  0.
-0.294640361638 -2.61483156423  0.
-0.29732681056 -2.76841455626  0.
-0.299428283667 -2.92318460864  0.
-0.30095273479 -3.07883020652  0.
-0.301874241165 -3.23505518671  0.
-0.302145579064 -3.39167399749  0.
0.001751953125 -0.0014625  0.
-0.00765826189088 -0.0106039864877  0.
-0.0167493332636 -0.0289101007806  0.
-0.0255309974164 -0.0561202369352  0.
-0.0340115663466 -0.0919562403888  0.
-0.042195403476 -0.136126896329  0.
-0.050082721492 -0.188335395391  0.
-0.0576730415351 -0.248283999075  0.
-0.0649659896338 -0.315674796956  0.
-0.0719613751926 -0.390209969533  0.
-0.0786591190837 -0.471591770333  0.
-0.0850591936247 -0.559522494519  0.
-0.0911615909718 -0.653704455223  0.
-0.0969663096847 -0.753839972257  0.
-0.102473349911 -0.859631367462  0.
-0.107682711966 -0.97078096314  0.
-0.112594396037 -1.08699108163  0.
-0.117208402149 -1.20796404525  0.
-0.121524730108 -1.33340217646  0.
-0.125543379312 -1.46300779793  0.
-0.129264348389 -1.59648323281  0.
-0.132687634923 -1.73353080446  0.
-0.135813236652 -1.87385283417  0.
-0.138641159026 -2.01715163217  0.
-0.14117144324 -2.16312946969  0.
-0.143404248935 -2.31148850508  0.
-0.145340059318 -2.46193063068  0.
-0.146980097864 -2.61415717922  0.
-0.148326859516 -2.76786885038  0.
-0.149383760369 -2.92276604275  0.
-0.150147743814 -3.07855687109  0.
-0.15060415899 -3.23497992369  0.
-0.150738985638 -3.39182144373  0.
0.0 0.0  0.
8.16772827821e-17 -0.00920150427491  0.
1.69089740898e-16 -0.0275642971658  0.
2.61129655411e-16 -0.0548248702717  0.
3.51325943061e-16 -0.090706921973  0.
4.44569282476e-16 -0.134921958487  0.
5.37545583554e-16 -0.187174791664  0.
6.35903351446e-16 -0.247167846484  0.
7.30097251511e-16 -0.314603205535  0.
8.1836780093e-16 -0.389182994745  0.
9.13271868376e-16 -0.470609436008  0.
1.01144669628e-15 -0.558584809104  0.
1.09861610309e-15 -0.652811421197  0.
1.19471477743e-15 -0.75299159011  0.
1.27489821729e-15 -0.858827637178  0.
1.37643569686e-15 -0.970021884638  0.
1.45970476336e-15 -1.08627665487  0.
1.54299315658e-15 -1.20729427028  0.
1.63221129941e-15 -1.33277705344  0.
1.70908022694e-15 -1.46242732727  0.
1.75911966141e-15 -1.59594741518  0.
1.8968462244e-15 -1.73303964038  0.
2.0221253189e-15 -1.87340632161  0.
2.09763351767e-15 -2.01674975799  0.
2.18151642324e-15 -2.16277218443  0.
2.21914737264e-15 -2.31117566423  0.
2.23679793548e-15 -2.46166186476  0.
2.30149611125e-15 -2.61393177784  0.
2.34155934969e-15 -2.76768566953  0.
2.33307368064e-15 -2.9226261205  0.
2.22506179643e-15 -3.07846850438  0.
2.24166063265e-15 -3.23495693616  0.
2.2847108426e-15 -3.39186668601  0.
-0.001751953125 -0.0014625  0.
0.00765826189088 -0.0106039864877  0.
0.0167493332636 -0.0289101007806  0.
0.0255309974164 -0.0561202369352  0.
0.0340115663466 -0.0919562403888  0.
0.042195403476 -0.136126896329  0.
0.050082721492 -0.188335395391  0.
0.0576730415351 -0.248283999075  0.
0.0649659896338 -0.315674796956  0.
0.0719613751926 -0.390209969533  0.
0.0786591190837 -0.471591770333  0.
0.0850591936247 -0.559522494519  0.
0.0911615909718 -0.653704455223  0.
0.0969663096847 -0.753839972257  0.
0.102473349911 -0.859631367462  0.
0.107682711966 -0.97078096314  0.
0.112594396037 -1.08699108163  0.
0.117208402149 -1.20796404525  0.
0.121524730108 -1.33340217646  0.
0.125543379312 -1.46300779793  0.
0.129264348389 -1.59648323281  0.
0.132687634923 -1.73353080446  0.
0.135813236652 -1.87385283417  0.
0.138641159026 -2.01715163217  0.
0.14117144324 -2.16312946969  0.
0.143404248935 -2.31148850508  0.
0.145340059318 -2.46193063068  0.
0.146980097864 -2.61415717922  0.
0.148326859516 -2.76786885038  0.
0.149383760369 -2.92276604275  0.
0.150147743814 -3.07855687109  0.
0.15060415899 -3.23497992369  0.
0.150738985638 -3.39182144373  0.
-0.002803125 -0.00585  0.
0.0160092641133 -0.0148066623194  0.
0.0341833240599 -0.0329423343951  0.
0.0517412083631 -0.0600042845979  0.
0.068704016215 -0.0957048371202  0.
0.0850736063074 -0.139742189714  0.
0.100849355891 -0.191817507719  0.
0.116030490987 -0.25163258462  0.
0.130616571434 -0.318889619471  0.
0.144607399373 -0.393290908553  0.
0.158002900006 -0.474538776619  0.
0.170803049743 -0.562335550909  0.
0.183007842987 -0.656383556917  0.
0.194617279285 -0.756385118399  0.
0.205631359149 -0.86204255816  0.
0.216050083009 -0.973058198589  0.
0.225873451085 -1.08913436191  0.
0.235101463417 -1.20997337029  0.
0.243734119835 -1.33527754588  0.
0.251771419744 -1.46474921088  0.
0.259213361659 -1.59809068776  0.
0.266059942557 -1.73500429987  0.
0.272311158034 -1.87519237318  0.
0.277967007421 -2.01835723989  0.
0.283027517127 -2.16420124439  0.
0.287492817474 -2.3124267488  0.
0.291363352234 -2.46273610738  0.
0.294640361638 -2.61483156423  0.
0.29732681056 -2.76841455626  0.
0.299428283667 -2.92318460864  0.
0.30095273479 -3.07883020652  0.
0.301874241165 -3.23505518671  0.
0.302145579064 -3.39167399749  0.
-0.002452734375 -0.0131625  0.
0.0257438930731 -0.0217880995663  0.
0.052970057899 -0.0396441125137  0.
0.0793104481611 -0.0664775657666  0.
0.104760887966 -0.101954146103  0.
0.129319224892 -0.145769087241  0.
0.152984684292 -0.197621725661  0.
0.175757098726 -0.257213853191  0.
0.197636450787 -0.32424775875  0.
0.218622750797 -0.398425835838  0.
0.23871600851 -0.479450459052  0.
0.257916229261 -0.567023977685  0.
0.276223415387 -0.660848725232  0.
0.29363756775 -0.76062702788  0.
0.310158686615 -0.866061208961  0.
0.325786772043 -0.976853590865  0.
0.340521824044 -1.09270649573  0.
0.354363842627 -1.2133222456  0.
0.367312827825 -1.33840316244  0.
0.379368779693 -1.46765156808  0.
0.390531698256 -1.60076978441  0.
0.400801583252 -1.73746013448  0.
0.410178433243 -1.87742494658  0.
0.418662243158 -2.02036656601  0.
0.426252998495 -2.16598738443  0.
0.432950664058 -2.31398989802  0.
0.438755169807 -2.46407679981  0.
0.443666419979 -2.61595096303  0.
0.447684470657 -2.76931509733  0.
0.450810695827 -2.9238680238  0.
0.453051893581 -3.07930072681  0.
0.454440840675 -3.23522270392  0.
0.454861372091 -3.39137106842  0.
0.0 -0.0234  0.
0.0374520890561 -0.0314749630343  0.
0.0737864449976 -0.049026980565  0.
0.108928637207 -0.0755422854432  0.
0.142871683446 -0.11070615677  0.
0.17561947414 -0.154208253497  0.
0.207174450644 -0.205748309131  0.
0.237537912908 -0.265027876633  0.
0.266710401029 -0.331749229938  0.
0.29469211165 -0.405614750909  0.
0.321483103002 -0.486326815138  0.
0.347083387302 -0.573587773129  0.
0.371492964505 -0.667099959324  0.
0.394711832767 -0.766565700356  0.
0.41673999078 -0.871687319739  0.
0.437577437889 -0.982167139927  0.
0.457224173819 -1.09770748307  0.
0.475680198494 -1.21801067121  0.
0.492945512022 -1.3427790263  0.
0.509020114925 -1.47171487018  0.
0.523904008821 -1.60452052483  0.
0.537597197867 -1.74089831367  0.
0.550099690997 -1.88055056606  0.
0.561411502859 -2.02317963026  0.
0.571532643093 -2.16848790389  0.
0.580463059849 -2.31617789527  0.
0.588202438713 -2.46595229637  0.
0.594749643775 -2.61751400355  0.
0.600101257588 -2.77056529324  0.
0.604248723701 -2.9248063561  0.
0.607170315105 -3.07991662759  0.
0.60883232201 -3.23556268809  0.
0.60924915816 -3.3907889028  0.
</DataArray>
<DataArray type="Float64" Name="Nodal_sigma_xx" NumberOfComponents="1" format="ascii" >
-65572.9752349 
-64566.4883381 
-62520.8282774 
-60437.7874142 
-58350.1326833 
-56263.4535873 
-54178.2448411 
-52093.8936361 
-50009.9376623 
-47926.1332258 
-45842.3776431 
-43758.6340992 
-41674.8918258 
-39591.1486574 
-37507.404663 
-35423.6602167 
-33339.9155957 
-31256.1710223 
-29172.4268514 
-27088.6838929 
-25004.943879 
-22921.209714 
-20837.4836139 
-18753.7566552 
-16669.9712981 
-14585.9141631 
-12500.9508691 
-10413.509711 
-8320.23427797 
-6216.29233934 
-4099.28997126 
-2018.79698592 
-1000.02417767 
-56259.4740941 
-55364.5891005 
-53579.374837 
-51796.4287046 
-50010.653066 
-48224.2925652 
-46437.9625083 
-44651.758282 
-42865.6331532 
-41079.5455719 
-39293.4726559 
-37507.4045684 
-35721.3377166 
-33935.2710228 
-32149.2042571 
-30363.1374194 
-28577.0705516 
-26791.0037066 
-25004.9369715 
-23218.8705118 
-21432.8045886 
-19646.7393572 
-17860.6738157 
-16074.6021307 
-14288.5033215 
-12502.3161873 
-10715.893077 
-8928.93887825 
-7141.16907435 
-5353.1955238 
-3571.21379388 
-1792.78725457 
-902.480699745 
-37563.9487731 
-36938.5454438 
-35714.3789836 
-34522.1084966 
-33334.9943207 
-32146.9905168 
-30957.6564786 
-29767.5180313 
-28577.0080487 
-27386.3542253 
-26195.6537264 
-25004.9415411 
-23814.2280196 
-22623.5152921 
-21432.8033291 
-20242.0917889 
-19051.3804124 
-17860.6689893 
-16669.9571829 
-15479.2442304 
-14288.5285129 
-13097.8073575 
-11907.0788828 
-10716.3520832 
-9525.68242838 
-8335.27381218 
-7145.72490952 
-5958.52268836 
-4776.7320819 
-3604.92754004 
-2443.05402403 
-1250.74082982 
-637.534277101 
-18789.1602922 
-18477.3395169 
-17861.3245198 
-17259.5395639 
-16665.5404696 
-16072.3411732 
-15478.3077901 
-14883.5631726 
-14288.4427903 
-13693.1628634 
-13097.8258746 
-12502.4721908 
-11907.1151651 
-11311.7582567 
-10716.4019299 
-10121.0459924 
-9525.69021018 
-8930.33435393 
-8334.97805153 
-7739.62052596 
-7144.26031769 
-6548.8955932 
-5953.5273929 
-5358.17298729 
-4762.9076801 
-4167.97410594 
-3574.02064959 
-2982.48573855 
-2395.72325322 
-1814.67672405 
-1228.76699063 
-622.43777661 
-312.814608112 
1.76441972144e-10 
1.796252036e-10 
1.8462742446e-10 
1.85536919162e-10 
1.83035808732e-10 
1.8462742446e-10 
1.8962964532e-10 
1.80307324626e-10 
1.7712409317e-10 
1.83263182407e-10 
1.70985003933e-10 
1.65073288372e-10 
1.7166712496e-10 
1.73713488039e-10 
1.75532477442e-10 
1.4870238374e-10 
1.10503606265e-10 
1.13004716695e-10 
1.28579813463e-10 
1.13118403533e-10 
1.00953911897e-10 
9.16315912036e-11 
1.10503606265e-10 
1.14596332423e-10 
8.1286088971e-11 
6.51425580145e-11 
7.42375050322e-11 
7.42375050322e-11 
7.1054273576e-11 
9.49285094975e-11 
8.00923771749e-11 
7.96802623881e-11 
9.60653778748e-11 
18789.1602922 
18477.3395169 
17861.3245198 
17259.5395639 
16665.5404696 
16072.3411732 
15478.3077901 
14883.5631726 
14288.4427903 
13693.1628634 
13097.8258746 
12502.4721908 
11907.1151651 
11311.7582567 
10716.4019299 
10121.0459924 
9525.69021018 
8930.33435393 
8334.97805153 
7739.62052596 
7144.26031769 
6548.8955932 
5953.5273929 
5358.17298729 
4762.9076801 
4167.97410594 
3574.02064959 
2982.48573855 
2395.72325322 
1814.67672405 
1228.76699063 
622.437776611 
312.814608112 
37563.9487731 
36938.5454438 
35714.3789836 
34522.1084966 
33334.9943207 
32146.9905168 
30957.6564786 
29767.5180313 
28577.0080487 
27386.3542253 
26195.6537264 
25004.9415411 
23814.2280196 
22623.5152921 
21432.8033291 
20242.0917889 
19051.3804124 
17860.6689893 
16669.9571829 
15479.2442304 
14288.5285129 
13097.8073575 
11907.0788828 
10716.3520832 
9525.68242838 
8335.27381218 
7145.72490952 
5958.52268836 
4776.7320819 
3604.92754004 
2443.05402403 
1250.74082982 
637.534277101 
56259.4740941 
55364.5891005 
53579.374837 
51796.4287046 
50010.653066 
48224.2925652 
46437.9625083 
44651.758282 
42865.6331532 
41079.5455719 
39293.4726559 
37507.4045684 
35721.3377166 
33935.2710228 
32149.2042571 
30363.1374194 
28577.0705516 
26791.0037066 
25004.9369715 
23218.8705118 
21432.8045886 
19646.7393572 
17860.6738157 
16074.6021307 
14288.5033215 
12502.3161873 
10715.893077 
8928.93887825 
7141.16907435 
5353.1955238 
3571.21379388 
1792.78725457 
902.480699745 
65572.9752349 
64566.4883381 
62520.8282774 
60437.7874142 
58350.1326833 
56263.4535873 
54178.2448411 
52093.8936361 
50009.9376623 
47926.1332258 
45842.3776431 
43758.6340992 
41674.8918258 
39591.1486574 
37507.404663 
35423.6602167 
33339.9155957 
31256.1710223 
29172.4268514 
27088.6838929 
25004.943879 
22921.209714 
20837.4836139 
18753.7566552 
16669.9712981 
14585.9141631 
12500.9508691 
10413.509711 
8320.23427797 
6216.29233935 
4099.28997126 
2018.79698592 
1000.02417767 
</DataArray>
<DataArray type="Float64" Name="Nodal_sigma_yy" NumberOfComponents="1" format="ascii" >
252.470897514 
127.100992179 
2.4111403901 
0.822811834355 
-1.08617114771 
-0.572751511786 
-0.295133443965 
-0.117319955935 
-0.0408544462166 
-0.0112601495434 
-0.0019495508991 
0.00030349892404 
0.000504424173414 
0.000314135904318 
0.000148934096615 
5.60443791073e-05 
-5.04522085976e-06 
-0.000100844381905 
-0.000342367186022 
-0.000924164088929 
-0.00209527176139 
-0.00377594053407 
-0.00388283945426 
0.00672847041392 
0.058823180995 
0.231010439843 
0.730180917619 
1.83383781031 
4.8120298104 
6.49293688958 
25.2720248911 
-248.787344667 
-542.188706247 
231.308129208 
133.435169746 
20.0860238487 
1.56326626708 
-1.51993762326 
-1.22561263869 
-0.649097641609 
-0.278508147875 
-0.101120061227 
-0.0302474227233 
-0.00639375350465 
-2.94926969673e-05 
0.000932417635795 
0.000668102347845 
0.000336388044161 
0.000128076894043 
-2.18841811375e-05 
-0.00025923348926 
-0.000829871873407 
-0.00213311427649 
-0.00456727933681 
-0.0074212207619 
-0.00466265148373 
0.0276410479215 
0.162964286593 
0.590502626827 
1.72301986529 
4.26948990906 
9.06446180619 
14.2045827049 
4.15860629129 
-233.753890595 
-459.540864252 
172.871907375 
118.995839467 
38.0526489975 
5.01122849063 
-1.66550336741 
-1.94270314173 
-1.12055159191 
-0.505335078663 
-0.191412060292 
-0.0604868548344 
-0.0143909525759 
-0.00119773001177 
0.00129558373783 
0.00110076849444 
0.000587677096746 
0.00022616879977 
-5.51008467369e-05 
-0.00050351579381 
-0.00154081511153 
-0.00380066292257 
-0.0077122369571 
-0.0111931027138 
-0.001496230675 
0.068077777417 
0.334334012314 
1.13529607556 
3.16128422888 
7.43912308854 
14.0450702717 
17.0379341158 
-24.7980264322 
-180.462030393 
-295.057820397 
90.8309346178 
66.3864745263 
26.7643514222 
5.83338809599 
-0.793179020942 
-1.42893797895 
-0.891968998869 
-0.41738657801 
-0.162883434989 
-0.0533181001635 
-0.0135533803578 
-0.00167162640457 
0.000834351510861 
0.000843091648022 
0.000472059741909 
0.000183168266645 
-5.47019834727e-05 
-0.000435793907755 
-0.00129401462118 
-0.00309877407084 
-0.00602976498242 
-0.00789408173631 
0.00291440687577 
0.0669343278939 
0.299291532374 
0.975698246795 
2.63285434902 
5.92980793522 
10.2950217709 
7.48827420745 
-23.5943522107 
-95.3526534685 
-141.063368953 
4.22915036324e-11 
3.32534000336e-11 
1.82751591637e-11 
6.79278855387e-12 
-1.36424205266e-12 
-1.9610979507e-12 
-2.27373675443e-12 
-1.86446413863e-11 
-1.6115109247e-11 
6.33804120298e-12 
-3.89377419197e-11 
-7.54312168283e-11 
-3.17470494338e-11 
2.43431941271e-11 
2.49258391705e-11 
-9.42037559071e-11 
-2.16829221245e-10 
-1.88265403267e-10 
-1.55750967679e-10 
-1.60412128025e-10 
-2.47297293754e-10 
-3.88929777273e-10 
-2.44419595674e-10 
-1.32125421715e-10 
-1.97701410798e-10 
-1.46975764892e-10 
-3.32605054609e-11 
-3.32569527473e-11 
1.87871052049e-10 
4.72574868127e-10 
3.01579206052e-10 
1.90436111325e-10 
2.50864218287e-10 
-90.8309346177 
-66.3864745262 
-26.7643514222 
-5.83338809597 
0.793179020943 
1.42893797894 
0.891968998883 
0.417386578039 
0.162883434978 
0.0533181001344 
0.0135533803185 
0.00167162641782 
-0.000834351434037 
-0.00084309159412 
-0.000472059703682 
-0.000183168350389 
5.47017589128e-05 
0.000435793715567 
0.00129401437636 
0.003098773791 
0.00602976472619 
0.00789408136716 
-0.00291440715737 
-0.0669343282242 
-0.299291532834 
-0.975698247085 
-2.63285434901 
-5.9298079351 
-10.2950217709 
-7.48827420757 
23.5943522108 
95.352653469 
141.063368953 
-172.871907375 
-118.995839467 
-38.0526489975 
-5.01122849062 
1.66550336741 
1.94270314173 
1.12055159192 
0.505335078673 
0.191412060247 
0.0604868547537 
0.0143909525474 
0.00119773007407 
-0.00129558366677 
-0.00110076854253 
-0.000587677220096 
-0.000226168895267 
5.51007368017e-05 
0.000503515634705 
0.00154081486966 
0.00380066276301 
0.00771223712712 
0.0111931027953 
0.00149623044649 
-0.0680777778766 
-0.334334012724 
-1.13529607573 
-3.16128422899 
-7.43912308834 
-14.0450702717 
-17.0379341163 
24.7980264319 
180.462030393 
295.057820396 
-231.308129208 
-133.435169746 
-20.0860238487 
-1.56326626707 
1.51993762327 
1.22561263871 
0.649097641588 
0.278508147812 
0.101120061148 
0.0302474226451 
0.00639375343917 
2.94925484923e-05 
-0.000932417834292 
-0.000668102532131 
-0.0003363882347 
-0.000128077016825 
2.1884142825e-05 
0.000259233432757 
0.000829871773362 
0.00213311429684 
0.0045672794439 
0.00742122066265 
0.00466265132673 
-0.0276410480967 
-0.16296428678 
-0.590502626822 
-1.72301986528 
-4.2694899091 
-9.06446180627 
-14.2045827052 
-4.15860629178 
233.753890594 
459.540864251 
-252.470897514 
-127.100992179 
-2.4111403901 
-0.822811834341 
1.08617114773 
0.572751511813 
0.29513344394 
0.117319955884 
0.0408544461598 
0.0112601494775 
0.00194955082452 
-0.00030349916824 
-0.000504424495375 
-0.000314136117595 
-0.00014893420439 
-5.60444127586e-05 
5.04534864376e-06 
0.000100844579265 
0.000342367291523 
0.000924164209891 
0.00209527161769 
0.00377594021211 
0.00388283952293 
-0.00672847024157 
-0.0588231810714 
-0.231010439765 
-0.730180917302 
-1.83383781048 
-4.81202981103 
-6.4929368902 
-25.2720248918 
248.787344667 
542.188706248 
</DataArray>
<DataArray type="Float64" Name="Nodal_sigma_xy" NumberOfComponents="1" format="ascii" >
-976.781631784 
-1042.89993063 
-1114.92872757 
-1120.31713945 
-1118.74236074 
-1117.05222903 
-1116.11402947 
-1115.69402694 
-1115.5348856 
-1115.48443521 
-1115.47234416 
-1115.47128348 
-1115.47233235 
-1115.47323618 
-1115.47372412 
-1115.4739355 
-1115.47399028 
-1115.47389073 
-1115.47345352 
-1115.4721694 
-1115.46902213 
-1115.46266304 
-1115.45351746 
-1115.45267705 
-1115.51006447 
-1115.78899459 
-1116.73382466 
-1119.38287802 
-1125.88226741 
-1139.55762055 
-1162.43458772 
-1087.20126171 
-998.196847891 
-1930.16818146 
-1960.63886196 
-2000.70975249 
-2011.16348583 
-2011.37355587 
-2010.14273331 
-2009.23756567 
-2008.78178344 
-2008.59328047 
-2008.52748172 
-2008.50888876 
-2008.50550131 
-2008.50586844 
-2008.50663498 
-2008.50712567 
-2008.50735428 
-2008.50740577 
-2008.50726397 
-2008.50672082 
-2008.50525463 
-2008.50196849 
-2008.49617703 
-2008.4906714 
-2008.5033587 
-2008.60078832 
-2008.97971459 
-2010.13040904 
-2013.07144384 
-2019.31752763 
-2029.35924561 
-2031.01815292 
-1982.63733714 
-1938.47971961 
-3518.37706935 
-3502.18041679 
-3489.84903911 
-3495.40681754 
-3497.31497117 
-3497.41812561 
-3497.19752877 
-3497.03075196 
-3496.94671838 
-3496.91213354 
-3496.90013945 
-3496.89678387 
-3496.89619045 
-3496.89626952 
-3496.896413 
-3496.89649621 
-3496.89650759 
-3496.89642364 
-3496.89615936 
-3496.89555244 
-3496.89446801 
-3496.89338948 
-3496.89554157 
-3496.91304627 
-3496.9820161 
-3497.19291834 
-3497.73190281 
-3498.85087742 
-3500.33973924 
-3498.97296951 
-3484.40389634 
-3492.55736547 
-3513.16114313 
-4468.26931854 
-4437.79863804 
-4397.7277475 
-4387.27401417 
-4387.06394413 
-4388.29476669 
-4389.19993432 
-4389.65571656 
-4389.84421952 
-4389.91001828 
-4389.92861123 
-4389.93199869 
-4389.93163155 
-4389.93086501 
-4389.93037433 
-4389.93014571 
-4389.93009423 
-4389.93023603 
-4389.93077918 
-4389.93224537 
-4389.93553151 
-4389.94132297 
-4389.9468286 
-4389.9341413 
-4389.83671168 
-4389.45778541 
-4388.30709096 
-4385.36605616 
-4379.11997237 
-4369.07825439 
-4367.41934708 
-4415.80016286 
-4459.95778039 
-4783.3392295 
-4749.61423578 
-4702.24819421 
-4685.74422547 
-4683.50269691 
-4684.98651975 
-4686.36591299 
-4687.11946914 
-4687.44667764 
-4687.56629771 
-4687.60237693 
-4687.61014878 
-4687.61028675 
-4687.60922478 
-4687.60844986 
-4687.60807208 
-4687.60799453 
-4687.60826199 
-4687.60922775 
-4687.61172572 
-4687.61704184 
-4687.62555799 
-4687.63039939 
-4687.59623041 
-4687.40090332 
-4686.70016872 
-4684.67736973 
-4679.79036714 
-4670.31325411 
-4659.37144043 
-4665.63261961 
-4724.55900734 
-4772.35586584 
-4468.26931854 
-4437.79863804 
-4397.7277475 
-4387.27401417 
-4387.06394413 
-4388.29476669 
-4389.19993432 
-4389.65571656 
-4389.84421952 
-4389.91001828 
-4389.92861123 
-4389.93199869 
-4389.93163155 
-4389.93086501 
-4389.93037433 
-4389.93014571 
-4389.93009423 
-4389.93023603 
-4389.93077918 
-4389.93224537 
-4389.93553151 
-4389.94132297 
-4389.9468286 
-4389.9341413 
-4389.83671168 
-4389.45778541 
-4388.30709096 
-4385.36605616 
-4379.11997237 
-4369.07825439 
-4367.41934708 
-4415.80016286 
-4459.95778039 
-3518.37706935 
-3502.18041679 
-3489.84903911 
-3495.40681754 
-3497.31497117 
-3497.41812561 
-3497.19752877 
-3497.03075196 
-3496.94671838 
-3496.91213354 
-3496.90013945 
-3496.89678387 
-3496.89619045 
-3496.89626952 
-3496.896413 
-3496.89649621 
-3496.89650759 
-3496.89642364 
-3496.89615936 
-3496.89555244 
-3496.89446801 
-3496.89338948 
-3496.89554157 
-3496.91304627 
-3496.9820161 
-3497.19291834 
-3497.73190281 
-3498.85087742 
-3500.33973924 
-3498.97296951 
-3484.40389634 
-3492.55736547 
-3513.16114313 
-1930.16818146 
-1960.63886196 
-2000.70975249 
-2011.16348583 
-2011.37355587 
-2010.14273331 
-2009.23756567 
-2008.78178344 
-2008.59328047 
-2008.52748172 
-2008.50888876 
-2008.50550131 
-2008.50586844 
-2008.50663498 
-2008.50712567 
-2008.50735428 
-2008.50740577 
-2008.50726397 
-2008.50672082 
-2008.50525463 
-2008.50196849 
-2008.49617703 
-2008.4906714 
-2008.5033587 
-2008.60078832 
-2008.97971459 
-2010.13040904 
-2013.07144384 
-2019.31752763 
-2029.35924561 
-2031.01815292 
-1982.63733714 
-1938.47971961 
-976.781631784 
-1042.89993063 
-1114.92872757 
-1120.31713945 
-1118.74236074 
-1117.05222903 
-1116.11402947 
-1115.69402694 
-1115.5348856 
-1115.48443521 
-1115.47234416 
-1115.47128348 
-1115.47233235 
-1115.47323618 
-1115.47372412 
-1115.4739355 
-1115.47399028 
-1115.47389073 
-1115.47345353 
-1115.4721694 
-1115.46902213 
-1115.46266304 
-1115.45351746 
-1115.45267705 
-1115.51006447 
-1115.78899459 
-1116.73382466 
-1119.38287802 
-1125.88226741 
-1139.55762055 
-1162.43458772 
-1087.20126171 
-998.196847891 
</DataArray>
</PointData>
<CellData>
</CellData>
<Points>
<DataArray type="Float64" Name="Points" NumberOfComponents="3" format="ascii">
0.0 -2.0 0.0
0.5 -2.0 0.0
1.0 -2.0 0.0
1.5 -2.0 0.0
2.0 -2.0 0.0
2.5 -2.0 0.0
3.0 -2.0 0.0
3.5 -2.0 0.0
4.0 -2.0 0.0
4.5 -2.0 0.0
5.0 -2.0 0.0
5.5 -2.0 0.0
6.0 -2.0 0.0
6.5 -2.0 0.0
7.0 -2.0 0.0
7.5 -2.0 0.0
8.0 -2.0 0.0
8.5 -2.0 0.0
9.0 -2.0 0.0
9.5 -2.0 0.0
10.0 -2.0 0.0
10.5 -2.0 0.0
11.0 -2.0 0.0
11.5 -2.0 0.0
12.0 -2.0 0.0
12.5 -2.0 0.0
13.0 -2.0 0.0
13.5 -2.0 0.0
14.0 -2.0 0.0
14.5 -2.0 0.0
15.0 -2.0 0.0
15.5 -2.0 0.0
16.0 -2.0 0.0
0.0 -1.5 0.0
0.5 -1.5 0.0
1.0 -1.5 0.0
1.5 -1.5 0.0
2.0 -1.5 0.0
2.5 -1.5 0.0
3.0 -1.5 0.0
3.5 -1.5 0.0
4.0 -1.5 0.0
4.5 -1.5 0.0
5.0 -1.5 0.0
5.5 -1.5 0.0
6.0 -1.5 0.0
6.5 -1.5 0.0
7.0 -1.5 0.0
7.5 -1.5 0.0
8.0 -1.5 0.0
8.5 -1.5 0.0
9.0 -1.5 0.0
9.5 -1.5 0.0
10.0 -1.5 0.0
10.5 -1.5 0.0
11.0 -1.5 0.0
11.5 -1.5 0.0
12.0 -1.5 0.0
12.5 -1.5 0.0
13.0 -1.5 0.0
13.5 -1.5 0.0
14.0 -1.5 0.0
14.5 -1.5 0.0
15.0 -1.5 0.0
15.5 -1.5 0.0
16.0 -1.5 0.0
0.0 -1.0 0.0
0.5 -1.0 0.0
1.0 -1.0 0.0
1.5 -1.0 0.0
2.0 -1.0 0.0
2.5 -1.0 0.0
3.0 -1.0 0.0
3.5 -1.0 0.0
4.0 -1.0 0.0
4.5 -1.0 0.0
5.0 -1.0 0.0
5.5 -1.0 0.0
6.0 -1.0 0.0
6.5 -1.0 0.0
7.0 -1.0 0.0
7.5 -1.0 0.0
8.0 -1.0 0.0
8.5 -1.0 0.0
9.0 -1.0 0.0
9.5 -1.0 0.0
10.0 -1.0 0.0
10.5 -1.0 0.0
11.0 -1.0 0.0
11.5 -1.0 0.0
12.0 -1.0 0.0
12.5 -1.0 0.0
13.0 -1.0 0.0
13.5 -1.0 0.0
14.0 -1.0 0.0
14.5 -1.0 0.0
15.0 -1.0 0.0
15.5 -1.0 0.0
16.0 -1.0 0.0
0.0 -0.5 0.0
0.5 -0.5 0.0
1.0 -0.5 0.0
1.5 -0.5 0.0
2.0 -0.5 0.0
2.5 -0.5 0.0
3.0 -0.5 0.0
3.5 -0.5 0.0
4.0 -0.5 0.0
4.5 -0.5 0.0
5.0 -0.5 0.0
5.5 -0.5 0.0
6.0 -0.5 0.0
6.5 -0.5 0.0
7.0 -0.5 0.0
7.5 -0.5 0.0
8.0 -0.5 0.0
8.5 -0.5 0.0
9.0 -0.5 0.0
9.5 -0.5 0.0
10.0 -0.5 0.0
10.5 -0.5 0.0
11.0 -0.5 0.0
11.5 -0.5 0.0
12.0 -0.5 0.0
12.5 -0.5 0.0
13.0 -0.5 0.0
13.5 -0.5 0.0
14.0 -0.5 0.0
14.5 -0.5 0.0
15.0 -0.5 0.0
15.5 -0.5 0.0
16.0 -0.5 0.0
0.0 0.0 0.0
0.5 0.0 0.0
1.0 0.0 0.0
1.5 0.0 0.0
2.0 0.0 0.0
2.5 0.0 0.0
3.0 0.0 0.0
3.5 0.0 0.0
4.0 0.0 0.0
4.5 0.0 0.0
5.0 0.0 0.0
5.5 0.0 0.0
6.0 0.0 0.0
6.5 0.0 0.0
7.0 0.0 0.0
7.5 0.0 0.0
8.0 0.0 0.0
8.5 0.0 0.0
9.0 0.0 0.0
9.5 0.0 0.0
10.0 0.0 0.0
10.5 0.0 0.0
11.0 0.0 0.0
11.5 0.0 0.0
12.0 0.0 0.0
12.5 0.0 0.0
13.0 0.0 0.0
13.5 0.0 0.0
14.0 0.0 0.0
14.5 0.0 0.0
15.0 0.0 0.0
15.5 0.0 0.0
16.0 0.0 0.0
0.0 0.5 0.0
0.5 0.5 0.0
1.0 0.5 0.0
1.5 0.5 0.0
2.0 0.5 0.0
2.5 0.5 0.0
3.0 0.5 0.0
3.5 0.5 0.0
4.0 0.5 0.0
4.5 0.5 0.0
5.0 0.5 0.0
5.5 0.5 0.0
6.0 0.5 0.0
6.5 0.5 0.0
7.0 0.5 0.0
7.5 0.5 0.0
8.0 0.5 0.0
8.5 0.5 0.0
9.0 0.5 0.0
9.5 0.5 0.0
10.0 0.5 0.0
10.5 0.5 0.0
11.0 0.5 0.0
11.5 0.5 0.0
12.0 0.5 0.0
12.5 0.5 0.0
13.0 0.5 0.0
13.5 0.5 0.0
14.0 0.5 0.0
14.5 0.5 0.0
15.0 0.5 0.0
15.5 0.5 0.0
16.0 0.5 0.0
0.0 1.0 0.0
0.5 1.0 0.0
1.0 1.0 0.0
1.5 1.0 0.0
2.0 1.0 0.0
2.5 1.0 0.0
3.0 1.0 0.0
3.5 1.0 0.0
4.0 1.0 0.0
4.5 1.0 0.0
5.0 1.0 0.0
5.5 1.0 0.0
6.0 1.0 0.0
6.5 1.0 0.0
7.0 1.0 0.0
7.5 1.0 0.0
8.0 1.0 0.0
8.5 1.0 0.0
9.0 1.0 0.0
9.5 1.0 0.0
10.0 1.0 0.0
10.5 1.0 0.0
11.0 1.0 0.0
11.5 1.0 0.0
12.0 1.0 0.0
12.5 1.0 0.0
13.0 1.0 0.0
13.5 1.0 0.0
14.0 1.0 0.0
14.5 1.0 0.0
15.0 1.0 0.0
15.5 1.0 0.0
16.0 1.0 0.0
0.0 1.5 0.0
0.5 1.5 0.0
1.0 1.5 0.0
1.5 1.5 0.0
2.0 1.5 0.0
2.5 1.5 0.0
3.0 1.5 0.0
3.5 1.5 0.0
4.0 1.5 0.0
4.5 1.5 0.0
5.0 1.5 0.0
5.5 1.5 0.0
6.0 1.5 0.0
6.5 1.5 0.0
7.0 1.5 0.0
7.5 1.5 0.0
8.0 1.5 0.0
8.5 1.5 0.0
9.0 1.5 0.0
9.5 1.5 0.0
10.0 1.5 0.0
10.5 1.5 0.0
11.0 1.5 0.0
11.5 1.5 0.0
12.0 1.5 0.0
12.5 1.5 0.0
13.0 1.5 0.0
13.5 1.5 0.0
14.0 1.5 0.0
14.5 1.5 0.0
15.0 1.5 0.0
15.5 1.5 0.0
16.0 1.5 0.0
0.0 2.0 0.0
0.5 2.0 0.0
1.0 2.0 0.0
1.5 2.0 0.0
2.0 2.0 0.0
2.5 2.0 0.0
3.0 2.0 0.0
3.5 2.0 0.0
4.0 2.0 0.0
4.5 2.0 0.0
5.0 2.0 0.0
5.5 2.0 0.0
6.0 2.0 0.0
6.5 2.0 0.0
7.0 2.0 0.0
7.5 2.0 0.0
8.0 2.0 0.0
8.5 2.0 0.0
9.0 2.0 0.0
9.5 2.0 0.0
10.0 2.0 0.0
10.5 2.0 0.0
11.0 2.0 0.0
11.5 2.0 0.0
12.0 2.0 0.0
12.5 2.0 0.0
13.0 2.0 0.0
13.5 2.0 0.0
14.0 2.0 0.0
14.5 2.0 0.0
15.0 2.0 0.0
15.5 2.0 0.0
16.0 2.0 0.0
</DataArray>
</Points>
<Cells>
<DataArray type="Int64" Name="connectivity" format="ascii">
0 1 34 33 
1 2 35 34 
2 3 36 35 
3 4 37 36 
4 5 38 37 
5 6 39 38 
6 7 40 39 
7 8 41 40 
8 9 42 41 
9 10 43 42 
10 11 44 43 
11 12 45 44 
12 13 46 45 
13 14 47 46 
14 15 48 47 
15 16 49 48 
16 17 50 49 
17 18 51 50 
18 19 52 51 
19 20 53 52 
20 21 54 53 
21 22 55 54 
22 23 56 55 
23 24 57 56 
24 25 58 57 
25 26 59 58 
26 27 60 59 
27 28 61 60 
28 29 62 61 
29 30 63 62 
30 31 64 63 
31 32 65 64 
33 34 67 66 