<?xml version="1.0"?>
<VTKFile type="UnstructuredGrid" version="0.1" byte_order="LittleEndian" compressor="vtkZLibDataCompressor">
<UnstructuredGrid>
<Piece NumberOfPoints="441" NumberOfCells="400">
<PointData>
<DataArray type="Float64" Name="displacement" NumberOfComponents="3" format="ascii" >
0.0 7.208851900796385e-13  0.
-9.951650514449774e-20 7.208850916571839e-13  0.
-4.543654005657702e-19 7.20884659329433e-13  0.
-1.8201955215101134e-18 7.208828292733193e-13  0.
-6.534607463482057e-18 7.20875939521547e-13  0.
-2.090818943680484e-17 7.208531077147991e-13  0.
-6.035885519805523e-17 7.207848446883103e-13  0.
-1.5836868978487912e-16 7.205997720875174e-13  0.
-3.8063830570152115e-16 7.201409037129144e-13  0.
-8.431512009944703e-16 7.190936199753857e-13  0.
-1.7302183101822492e-15 7.168818845189688e-13  0.
-3.304101094644104e-15 7.125390270927425e-13  0.
-5.8939900675851486e-15 7.045793453065101e-13  0.
-9.853275509355525e-15 6.909160670891399e-13  0.
-1.547948274167701e-14 6.688864578077074e-13  0.
-2.2906269086744003e-14 6.354429215748061e-13  0.
-3.1991699457448475e-14 5.875389518193311e-13  0.
-4.225252923988176e-14 5.226891030592375e-13  0.
-5.305157313896718e-14 4.397865841098459e-13  0.
-6.763065590152607e-14 3.436250333287186e-13  0.
-1.6411584231349114e-13 3.463944418296329e-13  0.
0.0 3.585241029950972e-12  0.
-2.6254530320932933e-19 3.5852408666653672e-12  0.
-1.3442084720524294e-18 3.5852397441283946e-12  0.
-5.885172894453451e-18 3.5852345059807245e-12  0.
-2.271494196299192e-17 3.585213259512273e-12  0.
-7.749454498392518e-17 3.5851373174764396e-12  0.
-2.364910118715745e-16 3.5848953944584852e-12  0.
-6.515677629745507e-16 3.584201748135216e-12  0.
-1.6340503382543306e-15 3.582396089578406e-12  0.
-3.755942077101057e-15 3.5780975329574897e-12  0.
-7.96007386851339e-15 3.5686795745655107e-12  0.
-1.5632238749011606e-14 3.5495881157726857e-12  0.
-2.856947413267136e-14 3.51361780375039e-12  0.
-4.87673292952757e-14 3.450384901405157e-12  0.
-7.799233021603275e-14 3.3463302705724706e-12  0.
-1.1716660349764262e-13 3.1855958923977434e-12  0.
-1.6571224352070269e-13 2.9519793239868214e-12  0.
-2.2111506415689017e-13 2.6319228691570647e-12  0.
-2.8006993524179324e-13 2.219209745500081e-12  0.
-3.635760025163998e-13 1.7457788908835413e-12  0.
-9.828523198713567e-13 1.8087701771334487e-12  0.
0.0 3.111797083544364e-11  0.
-1.1643164706853499e-18 3.1117970114962004e-11  0.
-6.547200307151017e-18 3.1117965124797236e-11  0.
-3.1430093017645443e-17 3.111793956247491e-11  0.
-1.309255636787422e-16 3.111782688097466e-11  0.
-4.788106232618745e-16 3.111739266772329e-11  0.
-1.553059321056875e-15 3.1115914903993494e-11  0.
-4.513692454382356e-15 3.1111424975802006e-11  0.
-1.1858028717448093e-14 3.1099132392814745e-11  0.
-2.8381447611009557e-14 3.1068553874996945e-11  0.
-6.229388605246869e-14 3.099895425046959e-11  0.
-1.2610336933365396e-13 3.085312653531268e-11  0.
-2.3656719050057794e-13 3.057041882338381e-11  0.
-4.129749129228655e-13 3.0061087592159754e-11  0.
-6.731936668471274e-13 2.920515521327913e-11  0.
-1.027767240322827e-12 2.785921319479793e-11  0.
-1.4732320054321009e-12 2.5873520565736654e-11  0.
-1.987479746308156e-12 2.311948328196269e-11  0.
-2.5401613719200588e-12 1.9534998959479446e-11  0.
-3.3260916190654458e-12 1.540918662666318e-11  0.
-8.933695048802962e-12 1.60831597099924e-11  0.
0.0 2.4022626413804737e-10  0.
-4.546530288851931e-18 2.402262614907469e-10  0.
-2.7816175381918564e-17 2.4022624184124e-10  0.
-1.4486885448255168e-16 2.402261326785906e-10  0.
-6.526617468180727e-16 2.402256102007052e-10  0.
-2.562742156896972e-15 2.402234387325171e-10  0.
-8.859090065946611e-15 2.4021552649194844e-10  0.
-2.7227738427122027e-14 2.401899962020842e-10  0.
-7.512025699007229e-14 2.4011631218525825e-10  0.
-1.8759754806274543e-13 2.3992441156808415e-10  0.
-4.2721264672623186e-13 2.394698745420161e-10  0.
-8.92724791877798e-13 2.3848415843186833e-10  0.
-1.7211252651629105e-12 2.3651567970235686e-10  0.
-3.075497021713158e-12 2.328779184921149e-10  0.
-5.113788641373069e-12 2.266307148778403e-10  0.
-7.938422728078377e-12 2.166254095939138e-10  0.
-1.1537891537886866e-11 2.016364937765097e-10  0.
-1.574332445234801e-11 1.805854863342054e-10  0.
-2.0322845375372744e-11 1.529339277555549e-10  0.
-2.6969274825525995e-11 1.2114868315205246e-10  0.
-7.116371101011885e-11 1.2734944415260572e-10  0.
0.0 1.61960637537334e-09  0.
-1.5766629899482547e-17 1.6196063667997963e-09  0.
-1.0393452202210633e-16 1.6196062991133534e-09  0.
-5.837781979189524e-16 1.6196058932419399e-09  0.
-2.8347782337786826e-15 1.6196037946881352e-09  0.
-1.1947653438010274e-14 1.6195943990872949e-09  0.
-4.403802612718784e-14 1.6195577472650843e-09  0.
-1.4332512166721827e-13 1.619432000454596e-09  0.
-4.157766057859868e-13 1.6190489282948554e-09  0.
-1.0848065586648429e-12 1.6180029567071815e-09  0.
-2.5657043744493186e-12 1.6154217757905919e-09  0.
-5.539302191346765e-12 1.6096223831955175e-09  0.
-1.0981811856901019e-11 1.5976835149574379e-09  0.
-2.009599158564192e-11 1.5750399364824766e-09  0.
-3.409261486254843e-11 1.535287557271328e-09  0.
-5.382249893468309e-11 1.4704298892685852e-09  0.
-7.932424684359377e-11 1.3717553695467903e-09  0.
-1.0948639890318253e-10 1.2314222739277022e-09  0.
-1.4280950468001706e-10 1.0454561064057837e-09  0.
-1.9231249131958178e-10 8.325604917977812e-10  0.
-4.965638872429203e-10 8.827415694786134e-10  0.
0.0 9.432493717036676e-09  0.
-4.909304692942503e-17 9.432493692310137e-09  0.
-3.44862330927112e-16 9.432493485744864e-09  0.
-2.074690914052964e-15 9.432492159724577e-09  0.
-1.0800450491059003e-14 9.432484801476688e-09  0.
-4.8698309762150585e-14 9.432449479730021e-09  0.
-1.9112357048147907e-13 9.432302291064939e-09  0.
-6.581992791395376e-13 9.431766062559386e-09  0.
-2.007470209887137e-12 9.430042516152861e-09  0.
-5.471670729434595e-12 9.4251097824881e-09  0.
-1.3440686092267998e-11 9.412428732564858e-09  0.
-2.997643530813825e-11 9.382915101158747e-09  0.
-6.11000397255154e-11 9.32029665658772e-09  0.
-1.1446130648280235e-10 9.19845287876847e-09  0.
-1.9804443107700142e-10 8.979881484097752e-09  0.
-3.1781500248294913e-10 8.616787469168989e-09  0.
-4.747616098596445e-10 8.056086331114353e-09  0.
-6.62624054931485e-10 7.249062499583532e-09  0.
-8.735070972879754e-10 6.17129579852768e-09  0.
-1.1953068314614741e-09 4.9479888728206e-09  0.
-3.004887301995977e-09 5.3021072920874065e-09  0.
0.0 4.685410863471009e-08  0.
-1.3800734113143996e-16 4.6854108570526584e-08  0.
-1.0261161588492475e-15 4.6854108006836706e-08  0.
-6.563255502847837e-15 4.6854104162566663e-08  0.
-3.6393065041930766e-14 4.68540814367898e-08  0.
-1.7469027737740967e-13 4.68539651598012e-08  0.
-7.274815804715968e-13 4.6853449936653967e-08  0.
-2.6444374108016044e-12 4.685146333303159e-08  0.
-8.462717958455031e-12 4.6844744599375394e-08  0.
-2.4056649048208222e-11 4.682463473171289e-08  0.
-6.127703231964693e-11 4.6770888096049036e-08  0.
-1.4096689318593478e-10 4.6641559570445485e-08  0.
-2.94958442649551e-10 4.6359295587959466e-08  0.
-5.648154692490558e-10 4.5796860162719355e-08  0.
-9.951889967622369e-10 4.4767813913784686e-08  0.
-1.621043276461336e-09 4.303037050280556e-08  0.
-2.4511574246531574e-09 4.0311741323616836e-08  0.
-3.4557833109561942e-09 3.6358239739957634e-08  0.
-4.603478866141732e-09 3.104984408242132e-08  0.
-6.4099944088421925e-09 2.5120669173902343e-08  0.
-1.5586585304857556e-08 2.7277173356251942e-08  0.
0.0 1.9553178847786063e-07  0.
-3.5315679857881047e-16 1.9553178832679437e-07  0.
-2.7607600432447686e-15 1.9553178694000455e-07  0.
-1.8643678191527e-14 1.9553177696454952e-07  0.
-1.0938720244586715e-13 1.955317145873638e-07  0.
-5.557761345865231e-13 1.9553137663558488e-07  0.
-2.444722027109318e-12 1.9552979285601826e-07  0.
-9.344839846716412e-12 1.955233591411904e-07  0.
-3.126575754800497e-11 1.9550056516229142e-07  0.
-9.238107653022958e-11 1.954295191924624e-07  0.
-2.4318029034426376e-10 1.952329608334939e-07  0.
-5.751432004607841e-10 1.9474602081922343e-07  0.
-1.2313032739608766e-09 1.9365734686968696e-07  0.
-2.402376232889649e-09 1.9144504442032118e-07  0.
-4.2969500780730245e-09 1.873332731098579e-07  0.
-7.083105074413629e-09 1.8030468425879918e-07  0.
-1.0811291509690507e-08 1.692018478946979e-07  0.
-1.5363155307822907e-08 1.5294681616424397e-07  0.
-2.0665380768580616e-08 1.3110653516151586e-07  0.
-2.931573703727605e-08 1.0741432734552452e-07  0.
-6.836780576749142e-08 1.1860796094633332e-07  0.
0.0 6.731988630407527e-07  0.
-8.278156401919299e-16 6.731988627166266e-07  0.
-6.762639383664169e-15 6.73198859622173e-07  0.
-4.7907897593624206e-14 6.731988362974101e-07  0.
-2.955311225040347e-13 6.731986830513902e-07  0.
-1.5800024732255808e-12 6.731978094565718e-07  0.
-7.303795231872489e-12 6.73193504376427e-07  0.
-2.922965349433404e-11 6.731751714665436e-07  0.
-1.0180896444886648e-10 6.731074565862453e-07  0.
-3.111900675812836e-10 6.728888985783757e-07  0.
-8.424069817382966e-10 6.722667283716153e-07  0.
-2.03744965342745e-09 6.706904366438513e-07  0.
-4.439196844614435e-09 6.671051754508359e-07  0.
-8.776542423518665e-09 6.597280178391108e-07  0.
-1.585016172133322e-08 6.458992565402855e-07  0.
-2.6301690561181483e-08 6.221365821373547e-07  0.
-4.032874545508944e-08 5.845018242233491e-07  0.
-5.753224271204513e-08 5.294139105955835e-07  0.
-7.801941634975504e-08 4.560291152062043e-07  0.
-1.1284315742600131e-07 3.805984172968467e-07  0.
-2.4961078800429856e-07 4.2937831374453473e-07  0.
0.0 1.8712367586110952e-06  0.
-1.785020925461718e-15 1.8712367579754571e-06  0.
-1.5156348955226574e-14 1.8712367516946568e-06  0.
-1.1197373082456518e-13 1.8712367023759112e-06  0.
-7.218965744656294e-13 1.8712363639801876e-06  0.
-4.037813865476164e-12 1.871234346496514e-06  0.
-1.9513370006931514e-11 1.871223950255045e-06  0.
-8.138459278278787e-11 1.8711777750034963e-06  0.
-2.9379504785056325e-10 1.8710008242709332e-06  0.
-9.243517316610302e-10 1.870412571677558e-06  0.
-2.5579951429979456e-09 1.8687013794661388e-06  0.
-6.284929146209742e-09 1.8643033152603395e-06  0.
-1.3833360052336532e-08 1.8542223772498067e-06  0.
-2.749968515015133e-08 1.8334345064780155e-06  0.
-4.9740755920358505e-08 1.7945670472969394e-06  0.
-8.242539132711008e-08 1.728198554936726e-06  0.
-1.259801989216943e-07 1.6240552895753628e-06  0.
-1.792697396305183e-07 1.473569630450812e-06  0.
-2.443943721636188e-07 1.2784093583335863e-06  0.
-3.602871447141655e-07 1.098007910153441e-06  0.
-7.449768688933934e-07 1.2730381140579518e-06  0.
0.0 4.1051228581108635e-06  0.
-3.549838231712488e-15 4.105122856972455e-06  0.
-3.117399466775171e-14 4.1051228453793925e-06  0.
-2.3889731390895453e-13 4.105122751038509e-06  0.
-1.600734490525494e-12 4.105122078743216e-06  0.
-9.31576788691257e-12 4.105117910098894e-06  0.
-4.6823466670483424e-11 4.105095567829578e-06  0.
-2.025832750909487e-10 4.104992572062238e-06  0.
-7.546921716699452e-10 4.104584927593507e-06  0.
-2.432380529316705e-09 4.103196137413825e-06  0.
-6.8402490133006295e-09 4.099094206679857e-06  0.
-1.6950504881949013e-08 4.088488303110103e-06  0.
-3.737054741709579e-08 4.064245113382049e-06  0.
-7.398819129207691e-08 4.014775402085789e-06  0.
-1.3264665588623935e-07 3.923859988101017e-06  0.
-2.1711499552403793e-07 3.7721213662193935e-06  0.
-3.271823898820885e-07 3.5405465385944887e-06  0.
-4.6008994244296857e-07 3.2175817664421296e-06  0.
-6.278489752791466e-07 2.8250979865255174e-06  0.
-9.40574846410328e-07 2.5409990084096058e-06  0.
-1.7842625781311836e-06 3.0447971994373775e-06  0.
0.0 7.0221583105241805e-06  0.
-6.526815263719806e-15 7.022158308662243e-06  0.
-5.901623399523267e-14 7.022158289196982e-06  0.
-4.668297673267926e-13 7.022158125807453e-06  0.
-3.2343713286512395e-12 7.022156922532803e-06  0.
-1.948381730059198e-11 7.022149202382672e-06  0.
-1.0135082967024911e-10 7.0221063817174134e-06  0.
-4.5283489202205386e-10 7.0219024471978344e-06  0.
-1.7337499669042325e-09 7.021072324825556e-06  0.
-5.699644632786997e-09 7.018186371667666e-06  0.
-1.6199161763176682e-08 7.009580074896841e-06  0.
-4.020299847790205e-08 6.987369524952088e-06  0.
-8.80397887689975e-08 6.937244211611388e-06  0.
-1.7183668399151246e-07 6.837344240870457e-06  0.
-3.0190932128325513e-07 6.659747446562147e-06  0.
-4.819152952244927e-07 6.375743004663246e-06  0.
-7.067817044244413e-07 5.96470383749213e-06  0.
-9.709715738239204e-07 5.432236671462407e-06  0.
-1.3191689968519464e-06 4.8769137427582325e-06  0.
-1.9897542609713737e-06 4.7187224041636745e-06  0.
-3.3891481611506435e-06 5.8420089358589355e-06  0.
0.0 9.627336398498778e-06  0.
-1.1144060312763215e-14 9.627336395703546e-06  0.
-1.03334478367209e-13 9.627336365811453e-06  0.
-8.400037606731528e-13 9.627336108123846e-06  0.
-5.9898790026068926e-12 9.627334155976726e-06  0.
-3.717326587866281e-11 9.627321257376969e-06  0.
-1.9920095181314998e-10 9.627247562287752e-06  0.
-9.152450104777665e-10 9.626886533645232e-06  0.
-3.5878100633758975e-09 9.625380864602216e-06  0.
-1.198666117793507e-08 9.620058213883042e-06  0.
-3.427487453049835e-08 9.60410056634044e-06  0.
-8.465790047105387e-08 9.563266037609019e-06  0.
-1.8269668302777305e-07 9.47314266549998e-06  0.
-3.483115088596596e-07 9.299736118554804e-06  0.
-5.932783771528743e-07 9.006003244647621e-06  0.
-9.130185398276575e-07 8.56423315576592e-06  0.
-1.2878383961500175e-06 7.974680106159936e-06  0.
-1.713682549348319e-06 7.306679824230204e-06  0.
-2.3076142288224835e-06 6.839507032944934e-06  0.
-3.436111842998865e-06 7.307530932735112e-06  0.
-5.169551650763761e-06 9.160894148305018e-06  0.
0.0 1.1690528441210393e-05  0.
-1.7763278120919166e-14 1.1690528437336922e-05  0.
-1.682998916570006e-13 1.169052839510815e-05  0.
-1.4004060688738659e-12 1.1690528022732971e-05  0.
-1.0235074250382279e-11 1.1690525133120699e-05  0.
-6.516058826389526e-11 1.169050555605842e-05  0.
-3.5821531154494635e-10 1.169039083482753e-05  0.
-1.6860115189752483e-09 1.1689815023302612e-05  0.
-6.744771894138055e-09 1.1687362986108925e-05  0.
-2.2834133328772183e-08 1.1678573455957847e-05  0.
-6.547218829192159e-08 1.1652158962650698e-05  0.
-1.6015265181462057e-07 1.1585457542468445e-05  0.
-3.3829221195048703e-07 1.1442634090287389e-05  0.
-6.251367197703959e-07 1.1180161042975967e-05  0.
-1.0236304202296578e-06 1.0761819340469785e-05  0.
-1.5079276291500813e-06 1.017862719315882e-05  0.
-2.037238575659064e-06 9.478279789743347e-06  0.
-2.6353488404600047e-06 8.845555067102103e-06  0.
-3.5259371840764623e-06 8.817192216793545e-06  0.
-5.037673470634992e-06 1.021498135025138e-05  0.
-6.735551592172568e-06 1.2342435742551346e-05  0.
0.0 1.406761743464105e-05  0.
-2.6503320911369034e-14 1.4067617429712173e-05  0.
-2.5572694025590883e-13 1.4067617375090274e-05  0.
-2.170262003188718e-12 1.4067616884108746e-05  0.
-1.6195642676837956e-11 1.4067612995798077e-05  0.
-1.0536099803186868e-10 1.4067586087579298e-05  0.
-5.919330120513645e-10 1.406742497627494e-05  0.
-2.8439968867579554e-09 1.406659941422909e-05  0.
-1.1576408090091594e-08 1.4063020459717519e-05  0.
-3.9623877340776914e-08 1.4050040117698569e-05  0.
-1.1368843893563e-07 1.401100445279467e-05  0.
-2.74536866122348e-07 1.391400132022773e-05  0.
-5.647329640626385e-07 1.3713726155760416e-05  0.
-1.0058508570138322e-06 1.3365362556561358e-05  0.
-1.5768122151325772e-06 1.2847447504827912e-05  0.
-2.2215690796827253e-06 1.2185953013918638e-05  0.
-2.905255571969878e-06 1.1487556468845174e-05  0.
-3.72824013802041e-06 1.1079334052087993e-05  0.
-5.008834857587085e-06 1.1658478619135638e-05  0.
-6.722255397025313e-06 1.3506890657093826e-05  0.
-8.262094974702732e-06 1.5071871141256218e-05  0.
0.0 1.6632237886831906e-05  0.
-3.70524163684033e-14 1.663223788112611e-05  0.
-3.6294764302330036e-13 1.663223781702443e-05  0.
-3.130859961071254e-12 1.6632237231559083e-05  0.
-2.377035101045085e-11 1.663223251578646e-05  0.
-1.574320393792688e-10 1.6632199299222588e-05  0.
-9.005739919889032e-10 1.663199681283588e-05  0.
-4.401779232077786e-09 1.6630941086161485e-05  0.
-1.817906069675283e-08 1.6626294910898975e-05  0.
-6.278408572187e-08 1.660927755402433e-05  0.
-1.8002936647144502e-07 1.655811046628999e-05  0.
-4.285174045943471e-07 1.6433091063216795e-05  0.
-8.557678219644347e-07 1.618509366196989e-05  0.
-1.4642944172486618e-06 1.577987153017512e-05  0.
-2.2003019135675176e-06 1.5220590285615397e-05  0.
-2.991224203497129e-06 1.456609216727203e-05  0.
-3.86969144484648e-06 1.398766274906726e-05  0.
-5.0481114931173955e-06 1.3938531704157475e-05  0.
-6.767066324883332e-06 1.500102137634149e-05  0.
-8.531705108085694e-06 1.6460675495890768e-05  0.
-9.897612307820324e-06 1.7219488874518872e-05  0.
0.0 1.8864299170640736e-05  0.
-4.863843489466772e-14 1.8864299164669963e-05  0.
-4.822488416940735e-13 1.8864299096859243e-05  0.
-4.214817410906757e-12 1.886429846961799e-05  0.
-3.244604166349278e-11 1.8864293348899884e-05  0.
-2.180056662402753e-10 1.8864256769230804e-05  0.
-1.265319309563302e-09 1.886403056523678e-05  0.
-6.27082848523357e-09 1.8862834703559567e-05  0.
-2.6203716478787865e-08 1.8857507791963486e-05  0.
-9.114649387255159e-08 1.8837843057204606e-05  0.
-2.6102458319129084e-07 1.877875524710487e-05  0.
-6.12429389110029e-07 1.863669080892876e-05  0.
-1.1866034534701604e-06 1.836600107035875e-05  0.
-1.9492548582778887e-06 1.7952455504160686e-05  0.
-2.825185764566219e-06 1.7423808525181914e-05  0.
-3.7738241311698337e-06 1.6853412094071902e-05  0.
-4.922627205355822e-06 1.6476534458247925e-05  0.
-6.532512920367274e-06 1.679229103027663e-05  0.
-8.41960433305854e-06 1.7967801192715964e-05  0.
-1.0030798032458453e-05 1.8771548532015834e-05  0.
-1.11974916069747e-05 1.9401413016776056e-05  0.
0.0 2.1311206534677154e-05  0.
-6.003302267995161e-14 2.1311206529165816e-05  0.
-6.007877467773036e-13 2.131120646604519e-05  0.
-5.303850322336701e-12 2.1311205876444276e-05  0.
-4.1265353845284885e-11 2.1311201012788076e-05  0.
-2.8034262819519646e-10 2.131116589047098e-05  0.
-1.6454004582544968e-09 2.131094628469411e-05  0.
-8.24208496730875e-09 2.1309772776358426e-05  0.
-3.4755189587023856e-08 2.130449607372251e-05  0.
-1.21558374826128e-07 2.1284896539738284e-05  0.
-3.476506476786804e-07 2.1226040738214783e-05  0.
-8.053454272608147e-07 2.1086459422792772e-05  0.
-1.5176236459029214e-06 2.083005520948451e-05  0.
-2.400731137066737e-06 2.046351019918025e-05  0.
-3.3888211076943774e-06 2.003029402286184e-05  0.
-4.5343503606034895e-06 1.959992957901399e-05  0.
-5.974898502402682e-06 1.944120042564963e-05  0.
-7.806479176741234e-06 1.9979366097041343e-05  0.
-9.456994578289415e-06 2.0818087671325996e-05  0.
-1.0742006371215451e-05 2.1194976756403587e-05  0.
-1.2033222084862207e-05 2.209767153516113e-05  0.
0.0 2.368931216441217e-05  0.
-6.972137951559617e-14 2.368931216015719e-05  0.
-7.02345718211636e-13 2.3689312111134744e-05  0.
-6.2445707306882775e-12 2.3689311650037912e-05  0.
-4.8950161811158265e-11 2.368930781832812e-05  0.
-3.3515673531773237e-10 2.3689279934341678e-05  0.
-1.9827208615231183e-09 2.3689104211248595e-05  0.
-1.00072896246921e-08 2.3688157980231125e-05  0.
-4.247197091129684e-08 2.368387441532946e-05  0.
-1.491286899182015e-07 2.3667891995200615e-05  0.
-4.260211032891032e-07 2.3619914759336078e-05  0.
-9.771663087204834e-07 2.3507279557145137e-05  0.
-1.8007870332869109e-06 2.330623718668473e-05  0.
-2.7627296659902694e-06 2.3035031394107683e-05  0.
-3.835937448744146e-06 2.273856971957333e-05  0.
-5.192657528959923e-06 2.246972053910764e-05  0.
-6.8212507877241155e-06 2.2456584338538575e-05  0.
-8.503537292335992e-06 2.2955048963658902e-05  0.
-9.95503424712048e-06 2.3385376774458513e-05  0.
-1.1127432991244357e-05 2.358189042249317e-05  0.
-1.254006748774163e-05 2.4224532475916404e-05  0.
0.0 2.6059963702376728e-05  0.
-7.625085728091671e-14 2.605996370005116e-05  0.
-7.711356985036203e-13 2.6059963673163877e-05  0.
-6.8852337713051e-12 2.6059963419238432e-05  0.
-5.421398794816513e-11 2.605996130001835e-05  0.
-3.729291301687178e-10 2.6059945808500318e-05  0.
-2.2165992220110752e-09 2.6059847732431876e-05  0.
-1.1238482723424203e-08 2.6059317245357323e-05  0.
-4.788204394408441e-08 2.6056906268500744e-05  0.
-1.6851837178596984e-07 2.6047887332044277e-05  0.
-4.810655763411889e-07 2.6020821735096968e-05  0.
-1.0965642027076708e-06 2.5957681693019513e-05  0.
-1.991943555364677e-06 2.584706309681353e-05  0.
-2.9954343028032963e-06 2.5703730898559582e-05  0.
-4.1222888011966775e-06 2.5556854412109617e-05  0.
-5.63454841148416e-06 2.54370898378037e-05  0.
-7.3229763756028075e-06 2.5460437132880112e-05  0.
-8.766592726658923e-06 2.570943630368169e-05  0.
-1.0217945270372599e-05 2.5938607677379893e-05  0.
-1.1542130539132249e-05 2.6066233707235382e-05  0.
-1.277975298222016e-05 2.6158824757333032e-05  0.
0.0 2.8449999999999922e-05  0.
-7.85582499342309e-14 2.8449999999999922e-05  0.
-7.955045632592702e-13 2.8449999999999922e-05  0.
-7.1127919054007635e-12 2.8449999999999922e-05  0.
-5.608891805149861e-11 2.8449999999999922e-05  0.
-3.8642294830279444e-10 2.8449999999999922e-05  0.
-2.3004004578901663e-09 2.8449999999999922e-05  0.
-1.1680913850466201e-08 2.8449999999999922e-05  0.
-4.98310298342931e-08 2.8449999999999922e-05  0.
-1.7551398886183718e-07 2.8449999999999922e-05  0.
-5.009111043036507e-07 2.8449999999999922e-05  0.
-1.1393772305439434e-06 2.8449999999999922e-05  0.
-2.059461977783042e-06 2.8449999999999922e-05  0.
-3.0755245596565664e-06 2.8449999999999922e-05  0.
-4.220486063851532e-06 2.8449999999999922e-05  0.
-5.7868937206077424e-06 2.8449999999999922e-05  0.
-7.483282756378993e-06 2.8449999999999922e-05  0.
-8.8470163933801e-06 2.8449999999999922e-05  0.
-1.0302683025075866e-05 2.8449999999999922e-05  0.
-1.1714823456670386e-05 2.8449999999999922e-05  0.
-1.2863955183440253e-05 2.8449999999999922e-05  0.
</DataArray>
<DataArray type="Float64" Name="sigma_xx" NumberOfComponents="1" format="ascii" >
16.040390793392582 
16.040386807691924 
16.040365236058555 
16.04028208035401 
16.039998185224384 
16.039126604638902 
16.036700323240886 
16.030531269084484 
16.01611117063583 
15.984928658507862 
15.922230955922593 
15.80449777716097 
15.597253666399519 
15.254166008116238 
14.718536744950933 
13.928062603252295 
12.823008266327204 
11.355177520488976 
9.461946093303194 
6.34854824266284 
4.298723066398222 
85.11183637871508 
85.1118247102711 
85.1117575750848 
85.111478204114 
85.11045779813206 
85.10713946363599 
85.09742325246702 
85.07159609538736 
85.0088003545579 
84.86822240527655 
84.57682073581549 
84.0148103753435 
83.00211055689563 
81.29114277832802 
78.57250018394876 
74.49926793245962 
68.73172848642636 
60.99063251108203 
50.95336166882623 
35.190959959963116 
25.072391268698965 
662.5949670158169 
662.5949158844955 
662.5946020855088 
662.5931978254671 
662.5877201404949 
662.5688220962542 
662.5105740176715 
662.3486707379998 
661.9395101770118 
660.9924643241613 
658.972234013344 
654.9788118870301 
647.6299346414025 
634.9892352347506 
614.5962093556666 
583.6486002386285 
539.3570142925295 
479.37140143228237 
400.8908603553295 
276.9129542362635 
197.24586262093158 
4447.772903859446 
4447.772706139828 
4447.771420335032 
4447.765259979474 
4447.739635521362 
4447.645968880252 
4447.342157148924 
4446.459458629091 
4444.141729015304 
4438.598520511981 
4426.438715857127 
4401.825809158265 
4355.6154621537935 
4274.779789720239 
4142.5176096177 
3939.434559960263 
3645.9464913124452 
3245.1304586816877 
2715.508242848163 
1868.4409517855097 
1321.8911354140323 
25738.524858742723 
25738.524178964268 
25738.519512530358 
25738.495680738262 
25738.39025766799 
25737.98265004811 
25736.59318125253 
25732.37786752668 
25720.891974043137 
25692.544259953145 
25628.694644103103 
25496.574237984783 
25243.953846396096 
24795.367932187164 
24052.355523890285 
22900.078002649476 
21221.281712452404 
18912.090851774803 
15830.079964052049 
10836.17958844984 
7600.384409034429 
126660.69756495087 
126660.6954679061 
126660.68033553852 
126660.5983808677 
126660.21442443438 
126658.64906132301 
126653.05617352013 
126635.38514884327 
126585.5531682569 
126459.00367923008 
126167.23945393089 
125552.07569597822 
124358.29677647499 
122213.94243011603 
118630.82984934212 
113037.09210390697 
104845.72126057686 
93523.8362839541 
78265.39770942052 
53204.70173800493 
36897.28411231939 
521143.83859319636 
521143.8327363647 
521143.7885278223 
521143.5360235104 
521142.28917880513 
521136.9498460626 
521117.024710943 
521051.706727879 
520861.8448607537 
520367.9718442737 
519208.1675680913 
516729.776050273 
511875.840380374 
503107.45749581873 
488413.56799234333 
465454.39766602626 
431840.8950780893 
385350.1279082598 
322144.4943898226 
216910.67258209895 
148153.19379384842 
1754466.0661080175 
1754466.051196884 
1754465.9340134931 
1754465.232021967 
1754461.5967545414 
1754445.3151292214 
1754382.0976677858 
1754167.9690248773 
1753529.602180381 
1751838.4809984849 
1747820.4796491032 
1739183.5947579225 
1722254.2431370993 
1691773.269710014 
1641027.112444737 
1562419.0002328781 
1448398.394648925 
1291727.1649795694 
1077277.0581312678 
715590.3092923268 
478453.6713256069 
4696631.595603272 
4696631.560819756 
4696631.27746615 
4696629.506520332 
4696619.9366743555 
4696575.305405714 
4696395.712866434 
4695769.780531579 
4693865.7445053235 
4688762.149563101 
4676591.391456273 
4650526.206589318 
4599959.414115591 
4510365.680084425 
4364258.616557097 
4143257.876061039 
3830442.524840326 
3408650.1946390863 
2829261.362964046 
1841681.0894618016 
1193015.1408578441 
9627378.681721529 
9627378.607118245 
9627377.979785863 
9627373.909628619 
9627351.069687106 
9627240.641743295 
9626781.955206912 
9625143.52587352 
9620083.269223267 
9606450.862683086 
9574099.645456698 
9505825.534650056 
9376495.27255163 
9154709.909903936 
8807375.108925793 
8306046.001940534 
7630544.822795862 
6755050.289082125 
5553596.2798468545 
3497666.7414338817 
2150982.5594330886 
14460378.463782003 
14460378.31623438 
14460377.04047722 
14460368.487988357 
14460318.879405035 
14460071.292635396 
14459013.778982986 
14455156.51505996 
14443114.164414782 
14410711.689900964 
14334857.489686906 
14178905.711385299 
13894808.970028915 
13432369.707821831 
12754451.65251019 
11850755.759925302 
10736183.207395986 
9392998.938165776 
7558201.138261542 
4471953.79256947 
2484309.3172643473 
15505026.774972357 
15505026.504767023 
15505024.110919168 
15505007.598703694 
15504909.009305783 
15504403.08725094 
15502188.662603866 
15493966.312296491 
15468106.986914735 
15398973.128769826 
15240610.61821767 
14927026.257864006 
14386226.589635085 
13568574.822709147 
12480012.20649387 
11196759.51803334 
9828699.908856686 
8360632.615837565 
6341441.952535151 
3223077.028224272 
1347426.8829762363 
13102358.641959395 
13102358.181459367 
13102354.014379337 
13102324.549646178 
13102144.13590364 
13101195.515031794 
13096953.376980562 
13080957.760092055 
13030400.505004022 
12896602.646416824 
12598777.678924706 
12036998.579067167 
11134320.470910374 
9896893.235919194 
8453113.32422684 
7031563.026467505 
5813455.909344302 
4641776.951026161 
2872394.861765302 
791386.4798988897 
-146073.34678728133 
12460527.185711574 
12460526.452716375 
12460519.69749368 
12460470.901960317 
12460165.555177592 
12458525.805494854 
12451054.865299113 
12422508.465843052 
12331982.601395287 
12095409.317757005 
11586617.385375274 
10682570.8913867 
9352400.924573522 
7744449.668964487 
6176386.182571841 
4981298.203912051 
4193382.7285161186 
3221126.3697265545 
1420572.243924509 
10504.880903841462 
-251909.63703497266 
13871024.089234523 
13871022.997385463 
13871012.7777808 
13870937.610940732 
13870458.48171231 
13867838.910264656 
13855712.201840002 
13808853.378206518 
13659954.05900247 
13276243.152605554 
12482335.968302965 
11168565.835490387 
9434430.7450818 
7645729.907960676 
6277318.367315378 
5518449.77984911 
4937710.842489245 
3507907.0494435234 
1261315.1166649158 
-95793.05284200772 
-292010.07100508036 
13463074.723079998 
13463073.19807779 
13463058.739151336 
13462950.784000218 
13462252.026182717 
13458374.144623794 
13440182.054923706 
13369227.44361902 
13143497.307419455 
12569980.101899773 
11430691.613154875 
9692469.570870185 
7683524.041789282 
5978410.5840830235 
5004368.597727232 
4482398.197064466 
3414656.8372621424 
1176748.6008921776 
-870937.3821140698 
-1066978.0581716485 
-632353.2601557453 
13131826.177922485 
13131824.177389385 
13131805.011737226 
13131660.174292706 
13130711.025511134 
13125379.521028215 
13100096.884549256 
13000738.945454946 
12684439.399517162 
11891321.151791874 
10377238.389638554 
8261335.96316054 
6179629.603364112 
4776157.930133923 
4080084.282711054 
3300675.4300049376 
1357326.64200847 
-945588.8023167735 
-1660059.099558114 
-454500.40065301745 
543637.7236932726 
13542635.442762382 
13542632.975070326 
13542609.144323941 
13542427.372181669 
13541224.80688383 
13534406.687380087 
13501804.042547105 
13372929.981077693 
12962528.095795091 
11944955.207130443 
10070513.748402135 
7671116.128287786 
5718972.187069073 
4701219.456018881 
3907017.6705511957 
2503940.7282002205 
301145.9595099387 
-977687.5490852925 
-251074.50128653273 
292489.80922167795 
124743.84061304387 
13328090.40743222 
13328087.5424468 
13328059.718094338 
13327846.085271297 
13326423.193881754 
13318302.525217237 
13279241.117924597 
13124195.310434688 
12630369.104499213 
11416390.656751078 
9242753.446144504 
6667343.617348948 
4961441.269271288 
4274162.49855777 
3029096.2031565807 
1041587.527723792 
-330007.2921946666 
-543047.3016526541 
403686.7931658197 
-101659.20982381725 
-1363799.0107688028 
13361655.49781075 
13361652.36515603 
13361621.838407222 
13361386.536628537 
13359813.015012488 
13350797.237362225 
13307276.619794201 
13134101.864407843 
12582494.9426849 
11233699.31787301 
8862435.856693162 
6200554.3395054145 
4723234.990992791 
4238983.144145205 