<?xml version="1.0"?>
<VTKFile type="UnstructuredGrid" version="0.1" byte_order="LittleEndian" compressor="vtkZLibDataCompressor">
<UnstructuredGrid>
<Piece NumberOfPoints="441" NumberOfCells="400">
<PointData>
<DataArray type="Float64" Name="displacement" NumberOfComponents="3" format="ascii" >
0.0 1.924544192014417e-08  0.
-2.3242314356767592e-14 1.9245426082216804e-08  0.
-8.312867366809966e-14 1.9245353188515985e-08  0.
-2.5642922866636155e-13 1.9245118824892954e-08  0.
-7.255183138548372e-13 1.9244436488644155e-08  0.
-1.8976835938226226e-12 1.9242602649287826e-08  0.
-4.608067821419067e-12 1.923803030489991e-08  0.
-1.042626837638775e-11 1.9227414439192546e-08  0.
-2.2055063320062764e-11 1.9204385216313297e-08  0.
-4.3749914505328875e-11 1.915756333812906e-08  0.
-8.160739897797556e-11 1.9068093006936223e-08  0.
-1.434960827212163e-10 1.8907003105445487e-08  0.
-2.3838186544531386e-10 1.863309414956462e-08  0.
-3.7487805638945324e-10 1.8192356155815624e-08  0.
-5.590561916719062e-10 1.752002520903404e-08  0.
-7.918604500434059e-10 1.6546124293369618e-08  0.
-1.0668285255246274e-09 1.520469376418015e-08  0.
-1.3694400750675805e-09 1.3446766747467006e-08  0.
-1.682266609517292e-09 1.1273489880873118e-08  0.
-2.0818523008427053e-09 8.955505212753491e-09  0.
-3.864345843936312e-09 9.213833814665843e-09  0.
0.0 4.334103499405962e-08  0.
-4.558694052076551e-14 4.3341008083438986e-08  0.
-1.6696989570780197e-13 4.3340880855069654e-08  0.
-5.279434917865752e-13 4.3340457704500734e-08  0.
-1.5280323408072184e-12 4.333918579722837e-08  0.
-4.079026909038846e-12 4.333566861632865e-08  0.
-1.0085832024649197e-11 4.33266757064243e-08  0.
-2.3187463954052895e-11 4.3305330089146666e-08  0.
-4.973960042485431e-11 4.3258122963850975e-08  0.
-9.987364692487599e-11 4.316052253247306e-08  0.
-1.8826285673190628e-10 4.297130267296936e-08  0.
-3.340342193600493e-10 4.262635274098837e-08  0.
-5.591978400601467e-10 4.203355192471539e-08  0.
-8.851562785688673e-10 4.107103736087037e-08  0.
-1.3273562606514597e-09 3.959147590131058e-08  0.
-1.88891850437549e-09 3.743439266233705e-08  0.
-2.555121057563004e-09 3.444728332968064e-08  0.
-3.2944407209658053e-09 3.051773886879503e-08  0.
-4.107631768083629e-09 2.5659985038462666e-08  0.
-5.489017626926661e-09 2.0683459669675433e-08  0.
-1.20589640598108e-08 2.239365797282622e-08  0.
0.0 1.5508854999377836e-07  0.
-1.5216053224855594e-13 1.5508846934989473e-07  0.
-5.719782440749538e-13 1.5508808038332163e-07  0.
-1.856880540252558e-12 1.5508675434109524e-07  0.
-5.5032756302041546e-12 1.5508267647558116e-07  0.
-1.4998637975939848e-11 1.5507117322824546e-07  0.
-3.775645450489501e-11 1.550412557484902e-07  0.
-8.814299188003431e-11 1.549692167092383e-07  0.
-1.9154287955995473e-10 1.5480798923770244e-07  0.
-3.887956889866964e-10 1.544714006755341e-07  0.
-7.394754650763547e-10 1.538137689394831e-07  0.
-1.3216668658024628e-09 1.526076202053934e-07  0.
-2.2256302465868977e-09 1.505252793437005e-07  0.
-3.53954851409728e-09 1.471327176252877e-07  0.
-5.327685019157063e-09 1.4190489468615792e-07  0.
-7.604439223509058e-09 1.3426970467849034e-07  0.
-1.0312232241732406e-08 1.2368346308167186e-07  0.
-1.3328523607120387e-08 1.0975171284102258e-07  0.
-1.6682817969108982e-08 9.26016040799394e-08  0.
-2.246886671306195e-08 7.542866370972303e-08  0.
-4.885338932990771e-08 8.36293781281596e-08  0.
0.0 4.972176363660571e-07  0.
-4.620752912273033e-13 4.972174068465527e-07  0.
-1.7780338953999673e-12 4.972162786462771e-07  0.
-5.9078668467324025e-12 4.97212343586218e-07  0.
-1.7868837639586143e-11 4.971999925008385e-07  0.
-4.954331470854635e-11 4.971645508401391e-07  0.
-1.2649452766302101e-10 4.970710964451945e-07  0.
-2.986774269857875e-10 4.968436514101515e-07  0.
-6.548098094457147e-10 4.963306120121266e-07  0.
-1.3379078582592788e-09 4.952538688797468e-07  0.
-2.556402576449411e-09 4.931436429913398e-07  0.
-4.582472460875984e-09 4.892688136913141e-07  0.
-7.728663220964134e-09 4.825818914430197e-07  0.
-1.229722697910557e-08 4.7170525146551206e-07  0.
-1.8504530159789267e-08 4.549862484744461e-07  0.
-2.6393984620698014e-08 4.3064047103865124e-07  0.
-3.576766544101841e-08 3.969919265677665e-07  0.
-4.6243653562757016e-08 3.528859553874102e-07  0.
-5.8171408818070564e-08 2.991497448253242e-07  0.
-7.951478163426791e-08 2.4801173116713457e-07  0.
-1.6535947722147416e-07 2.8014057067951246e-07  0.
0.0 1.3522554871333754e-06  0.
-1.29166652446684e-12 1.3522548856983629e-06  0.
-5.077859831516206e-12 1.35225187782094e-06  0.
-1.7225792801017257e-11 1.3522411721426901e-06  0.
-5.302059943755581e-11 1.3522069824488793e-06  0.
-1.490745424685839e-10 1.3521075410006936e-06  0.
-3.846579052102219e-10 1.3518427856140396e-06  0.
-9.149577925548466e-10 1.3511945690752665e-06  0.
-2.014839340531896e-09 1.3497286450083338e-06  0.
-4.124264266567366e-09 1.3466536543636499e-06  0.
-7.876956365457567e-09 1.3406469718558776e-06  0.
-1.408670777248384e-08 1.329679629731837e-06  0.
-2.366643148234828e-08 1.3108964006750796e-06  0.
-3.7469262184095326e-08 1.280620803724536e-06  0.
-5.606655558520368e-08 1.2345470710942142e-06  0.
-7.951169446031007e-08 1.1681496451923469e-06  0.
-1.0719229173922295e-07 1.0773285680043945e-06  0.
-1.3817632149259842e-07 9.59641803212329e-07  0.
-1.7460019735283474e-07 8.193849536847463e-07  0.
-2.422633961791598e-07 6.969141565617188e-07  0.
-4.776671032281516e-07 8.047754204532685e-07  0.
0.0 3.0616231041253384e-06  0.
-3.3341436245125623e-12 3.0616216561627365e-06  0.
-1.3364609358977535e-11 3.0616143004788195e-06  0.
-4.6173027193184933e-11 3.0615876515994726e-06  0.
-1.4421849126771813e-10 3.0615013180819557e-06  0.
-4.0985563819265476e-10 3.061247706497496e-06  0.
-1.0647677176761864e-09 3.0605687943546286e-06  0.
-2.540477292531293e-09 3.0589048231729598e-06  0.
-5.592268040371386e-09 3.0551535926210947e-06  0.
-1.1406834308442304e-08 3.0473402685535424e-06  0.
-2.1649478850456364e-08 3.0322397762865888e-06  0.
-3.8383551454752164e-08 3.005049144589265e-06  0.
-6.381111296117602e-08 2.9592511934599593e-06  0.
-9.983418736559654e-08 2.886813443427418e-06  0.
-1.4751482941522873e-07 2.778803795608356e-06  0.
-2.0659000895506035e-07 2.6264054577802933e-06  0.
-2.7536542143934664e-07 2.4223658714051543e-06  0.
-3.523292962796436e-07 2.164275271313452e-06  0.
-4.4690926618753617e-07 1.8699248616461122e-06  0.
-6.295403292363858e-07 1.6524219716106735e-06  0.
-1.1642911240800868e-06 1.9578206259140005e-06  0.
0.0 5.683769704866048e-06  0.
-7.954923956361471e-12 5.683766505347407e-06  0.
-3.244814587539594e-11 5.683750021877752e-06  0.
-1.1389649274784529e-10 5.683689380401464e-06  0.
-3.600085930343547e-10 5.683490658132257e-06  0.
-1.0308050673136553e-09 5.682903091829605e-06  0.
-2.686066271692768e-09 5.6813281857437764e-06  0.
-6.400457321000735e-09 5.677483450048963e-06  0.
-1.4013258161397232e-08 5.6688943629451445e-06  0.
-2.832226813146398e-08 5.651253663945289e-06  0.
-5.308094515833755e-08 5.617793239043798e-06  0.
-9.265511661644563e-08 5.558922305638878e-06  0.
-1.512795311103438e-07 5.462426575595213e-06  0.
-2.3201711796202662e-07 5.314426157590056e-06  0.
-3.357126656173695e-07 5.101052241393498e-06  0.
-4.60390980942917e-07 4.810570496044854e-06  0.
-6.020031812647811e-07 4.436156573351718e-06  0.
-7.604048976520512e-07 3.984069726798298e-06  0.
-9.67893782658498e-07 3.513564102094596e-06  0.
-1.381929593931533e-06 3.2873367075607215e-06  0.
-2.3677190619626134e-06 4.000098661053365e-06  0.
0.0 8.636231696089315e-06  0.
-1.7581484536826484e-11 8.636225193207475e-06  0.
-7.283755030474735e-11 8.63619126997537e-06  0.
-2.5916378527322543e-10 8.636064820302581e-06  0.
-8.268353159782316e-10 8.635646774190897e-06  0.
-2.3779548413240602e-09 8.63440668010553e-06  0.
-6.192558720348738e-09 8.631091813916957e-06  0.
-1.4673053756619667e-08 8.623071088487441e-06  0.
-3.1792287900274493e-08 8.605420887668454e-06  0.
-6.330439548812093e-08 8.569928551208275e-06  0.
-1.1640633709896805e-07 8.504407255269655e-06  0.
-1.9863081092365303e-07 8.392855980510033e-06  0.
-3.1603271029604584e-07 8.216910339898704e-06  0.
-4.7116614516062285e-07 7.95861449596414e-06  0.
-6.616418494669858e-07 7.603968851426051e-06  0.
-8.803645512463992e-07 7.1464807663122265e-06  0.
-1.1196559553035885e-06 6.592135374653624e-06  0.
-1.3888347515508786e-06 5.979418345284742e-06  0.
-1.7748507968256993e-06 5.466328387745041e-06  0.
-2.5532495726821027e-06 5.539868994866307e-06  0.
-4.003938386259048e-06 6.87047735404556e-06  0.
0.0 1.1102522510878706e-05  0.
-3.6175660782697185e-11 1.1102510264569416e-05  0.
-1.5194797509897578e-10 1.1102445668185837e-05  0.
-5.469245681532234e-10 1.1102202181662474e-05  0.
-1.7571678115795293e-09 1.1101391930441864e-05  0.
-5.06192238729572e-09 1.1098987328530598e-05  0.
-1.3129006117647382e-08 1.1092600477266683e-05  0.
-3.0807313851481203e-08 1.107735448532235e-05  0.
-6.573877729860046e-08 1.1044496345524412e-05  0.
-1.2824265500498287e-07 1.0980256747753915e-05  0.
-2.2992834231796957e-07 1.0865788102488114e-05  0.
-3.809076848410851e-07 1.0679016307503959e-05  0.
-5.862513386637828e-07 1.0398655821332974e-05  0.
-8.430415447352618e-07 1.0009643009895492e-05  0.
-1.1397704882878163e-06 9.508328530494199e-06  0.
-1.4598239096808508e-06 8.906738701438664e-06  0.
-1.7943207652763409e-06 8.242208274133203e-06  0.
-2.18236282011923e-06 7.624328887121385e-06  0.
-2.8064997100221657e-06 7.384990135373252e-06  0.
-4.013203656757941e-06 8.193736502994938e-06  0.
-5.726690608903063e-06 1.0106587363941469e-05  0.
0.0 1.3127158171456986e-05  0.
-6.969454696409201e-11 1.3127136656757162e-05  0.
-2.9634418461513557e-10 1.3127022047535501e-05  0.
-1.0772343566137976e-09 1.3126585901552936e-05  0.
-3.4787568531543734e-09 1.3125127664905495e-05  0.
-1.0014943607537482e-08 1.312080792218154e-05  0.
-2.5795349406905098e-08 1.3109442249626452e-05  0.
-5.972238983246912e-08 1.308278725416038e-05  0.
-1.2495262176107045e-07 1.30268262566562e-05  0.
-2.3758733716242275e-07 1.292116025268739e-05  0.
-4.1297417997552413e-07 1.2740853686383388e-05  0.
-6.601997914491874e-07 1.2461447268113691e-05  0.
-9.769152604609403e-07 1.2066235479130196e-05  0.
-1.3472226249629599e-06 1.155317276359137e-05  0.
-1.7450964775793964e-06 1.0938753831143233e-05  0.
-2.1454909155393476e-06 1.026098947498605e-05  0.
-2.552920045150463e-06 9.601262220711838e-06  0.
-3.071893952992047e-06 9.179923215612834e-06  0.
-3.992709538749667e-06 9.529526021747193e-06  0.
-5.554303882414599e-06 1.120071531161293e-05  0.
-7.274677332161978e-06 1.3224923627313447e-05  0.
0.0 1.5495721826015036e-05  0.
-1.260534492427586e-10 1.5495686602796096e-05  0.
-5.418702359027381e-10 1.5495497304603923e-05  0.
-1.986497947023228e-09 1.5494770959863876e-05  0.
-6.4386815005375086e-09 1.549233430852682e-05  0.
-1.849153114558046e-08 1.548514179214866e-05  0.
-4.718625897147321e-08 1.546644240620967e-05  0.
-1.0745765165950217e-07 1.5423513848505254e-05  0.
-2.1959764973165232e-07 1.5336150978827727e-05  0.
-4.0519338760427653e-07 1.517782404173654e-05  0.
-6.79607706954924e-07 1.4921001780409804e-05  0.
-1.043671840457703e-06 1.4545988459394709e-05  0.
-1.4791976739816543e-06 1.4049736686304587e-05  0.
-1.9524434331737316e-06 1.3449537760459294e-05  0.
-2.425973991291505e-06 1.2780786612978328e-05  0.
-2.8828204935727373e-06 1.2100622607408493e-05  0.
-3.374104213526555e-06 1.1540564284556777e-05  0.
-4.105664980863369e-06 1.145754660499717e-05  0.
-5.396691508655396e-06 1.2466547222307795e-05  0.
-7.144892457662346e-06 1.4504325583189383e-05  0.
-8.765527642992473e-06 1.605038147788716e-05  0.
0.0 1.8121674970938674e-05  0.
-2.1414680024177387e-10 1.8121621421106818e-05  0.
-9.294763173286891e-10 1.8121331366836566e-05  0.
-3.4321028648516985e-09 1.8120210510284832e-05  0.
-1.1151437307341592e-08 1.811644211034186e-05  0.
-3.1903849014248345e-08 1.810537305340512e-05  0.
-8.050178456030443e-08 1.8076995173992778e-05  0.
-1.7985452962128096e-07 1.801342741395416e-05  0.
-3.578385941167472e-07 1.788860820237219e-05  0.
-6.384500668122605e-07 1.7672760481620842e-05  0.
-1.0297596735827949e-06 1.7342084999654827e-05  0.
-1.515517383084013e-06 1.6889634382259533e-05  0.
-2.0571462336904437e-06 1.6330140633575807e-05  0.
-2.6087175700065388e-06 1.569442553115429e-05  0.
-3.1405891148783234e-06 1.5020696920911644e-05  0.
-3.6743511174022085e-06 1.437781682020053e-05  0.
-4.3465364570694154e-06 1.3975519899852311e-05  0.
-5.445268205064814e-06 1.4315164534447928e-05  0.
-7.129023977153974e-06 1.581243056038079e-05  0.
-8.883547379543611e-06 1.7551168469292253e-05  0.
-1.03671371331937e-05 1.8631191489175494e-05  0.
0.0 2.037276240496378e-05  0.
-3.4245664202155523e-10 2.0372686629380615e-05  0.
-1.4989265307635685e-09 2.0372273388538185e-05  0.
-5.568317413177223e-09 2.037066703805801e-05  0.
-1.81177795836842e-08 2.0365260021442538e-05  0.
-5.157922539161571e-08 2.0349472533055678e-05  0.
-1.2850226845189315e-07 2.030962364158235e-05  0.
-2.810546354934507e-07 2.0222763064900922e-05  0.
-5.429386707303897e-07 2.005890221276754e-05  0.
-9.341069851592323e-07 1.978997347897162e-05  0.
-1.4460588150625752e-06 1.9402782322915035e-05  0.
-2.040173028233648e-06 1.890688133182682e-05  0.
-2.6643423975309105e-06 1.832820784590072e-05  0.
-3.280846345039745e-06 1.7692798623554328e-05  0.
-3.89759312794165e-06 1.702751029473944e-05  0.
-4.60058073366913e-06 1.6435617792571502e-05  0.
-5.610395375836778e-06 1.6267716495286284e-05  0.
-7.1713275327448e-06 1.7095430596852935e-05  0.
-9.07966454375327e-06 1.879670255941701e-05  0.
-1.0670064933301132e-05 2.004747510782394e-05  0.
-1.202816796826315e-05 2.1298627369952428e-05  0.
0.0 2.2702902461652138e-05  0.
-5.167132814771184e-10 2.2702802715695265e-05  0.
-2.2781667204171245e-09 2.2702255542642182e-05  0.
-8.505994805918155e-09 2.2700118015279718e-05  0.
-2.7694631307452312e-08 2.2692919623037452e-05  0.
-7.840582282164866e-08 2.2672038466951906e-05  0.
-1.9270607073216559e-07 2.2620190267130248e-05  0.
-4.120430866216998e-07 2.2510419099339908e-05  0.
-7.713998286187891e-07 2.2312160599673445e-05  0.
-1.2777403841227035e-06 2.200472982944257e-05  0.
-1.898865628542055e-06 2.1589638615825592e-05  0.
-2.5781085466558447e-06 2.108850185693973e-05  0.
-3.2709324969905204e-06 2.0522163621233666e-05  0.
-3.975302049503727e-06 1.9895417171235146e-05  0.
-4.753453638437417e-06 1.9240744979208787e-05  0.
-5.7552710932391655e-06 1.8761025145557073e-05  0.
-7.200234544227082e-06 1.897044601588848e-05  0.
-9.119110706689838e-06 2.0234282134308876e-05  0.
-1.0928351025679608e-05 2.1709295661620988e-05  0.
-1.2304583042926962e-05 2.257545928362171e-05  0.
-1.3710569266314313e-05 2.4218887797511245e-05  0.
0.0 2.521882346223418e-05  0.
-7.360748018211248e-10 2.5218702130955744e-05  0.
-3.2655379140077172e-09 2.521803315250326e-05  0.
-1.2243692738315178e-08 2.5215408821577345e-05  0.
-3.987017792505298e-08 2.5206570326573642e-05  0.
-1.1222581048578175e-07 2.518109916546474e-05  0.
-2.7207615306723033e-07 2.511888136625935e-05  0.
-5.684863404042876e-07 2.4991024749297018e-05  0.
-1.0306453483394517e-06 2.47704384179251e-05  0.
-1.6435511306539115e-06 2.4448211699496448e-05  0.
-2.351699954213738e-06 2.4039192584272604e-05  0.
-3.0975034627304398e-06 2.3564571996390164e-05  0.
-3.871077161366237e-06 2.3024542519037756e-05  0.
-4.722448995303311e-06 2.240769160973705e-05  0.
-5.7491108865077865e-06 2.1802913516057296e-05  0.
-7.115776073909098e-06 2.1574229168256207e-05  0.
-8.915931014444124e-06 2.2253595053807293e-05  0.
-1.0874021719339173e-05 2.3651816805487316e-05  0.
-1.2400163627301477e-05 2.452064104218716e-05  0.
-1.3738160195115561e-05 2.5180711571826943e-05  0.
-1.5126458255344431e-05 2.661153950188352e-05  0.
0.0 2.749170622495426e-05  0.
-9.912004494191976e-10 2.7491570423599524e-05  0.
-4.420169750304827e-09 2.749081852493661e-05  0.
-1.6628947539914817e-08 2.7487859073268275e-05  0.
-5.413860772257485e-08 2.747789506579932e-05  0.
-1.5152928315979944e-07 2.7449362878970726e-05  0.
-3.6253948263553135e-07 2.738075715614171e-05  0.
-7.406228252979828e-07 2.724385376471115e-05  0.
-1.3008824704254268e-06 2.701841114962146e-05  0.
-2.0003459959500396e-06 2.6708525420387085e-05  0.
-2.771404767594601e-06 2.6335700548027457e-05  0.
-3.582100501100403e-06 2.5906148202010694e-05  0.
-4.471855975232217e-06 2.5396867801756814e-05  0.
-5.529869960902491e-06 2.4814095361985283e-05  0.
-6.837313274731182e-06 2.4351642807640566e-05  0.
-8.48410676648009e-06 2.4482997920449038e-05  0.
-1.0380937811156305e-05 2.546460709542962e-05  0.
-1.2040105912987485e-05 2.651127693096698e-05  0.
-1.3406253338843681e-05 2.6859050556230173e-05  0.
-1.4826369991616219e-05 2.7677424837962227e-05  0.
-1.5981876720072417e-05 2.8435911736267397e-05  0.
0.0 2.9929511458332945e-05  0.
-1.2630960575691308e-09 2.9929373290897428e-05  0.
-5.656291639215346e-09 2.9928605678155273e-05  0.
-2.1336329623004627e-08 2.9925576311014345e-05  0.
-6.943735969448468e-08 2.991538136177057e-05  0.
-1.9335173894044673e-07 2.9886354516693435e-05  0.
-4.5708320874193183e-07 2.9817545912400662e-05  0.
-9.145283125610489e-07 2.9683940540048527e-05  0.
-1.5594664683356001e-06 2.947362078361434e-05  0.
-2.320053572026699e-06 2.920111364097705e-05  0.
-3.1365302720572307e-06 2.888608211503848e-05  0.
-4.028697127564668e-06 2.8511913307380606e-05  0.
-5.071038250089124e-06 2.804610561085181e-05  0.
-6.344415592517739e-06 2.7552768932404016e-05  0.
-7.868541434655685e-06 2.7316841854741894e-05  0.
-9.58844036581083e-06 2.774325898046663e-05  0.
-1.1323451404067002e-05 2.8653778253484272e-05  0.
-1.2715185805363826e-05 2.9096490671280334e-05  0.
-1.4119350883387443e-05 2.9360134058867363e-05  0.
-1.5499989325173035e-05 3.0266233943723898e-05  0.
-1.6729586197665375e-05 3.058226581943363e-05  0.
0.0 3.230282818593814e-05  0.
-1.523934173616998e-09 3.2302703425613287e-05  0.
-6.84638412707291e-09 3.230200846032142e-05  0.
-2.5877703753627233e-08 3.229926017394888e-05  0.
-8.417959542973482e-08 3.229001515226757e-05  0.
-2.333861942864917e-07 3.226381749983659e-05  0.
-5.46159747632979e-07 3.2202451898109774e-05  0.
-1.0733906772238447e-06 3.2086074821768685e-05  0.
-1.7837717119982124e-06 3.191012649066892e-05  0.
-2.580912425553566e-06 3.169399155076779e-05  0.
-3.433951575435941e-06 3.1449739056057994e-05  0.
-4.429077967941943e-06 3.114219999624557e-05  0.
-5.633670666111066e-06 3.07483790199638e-05  0.
-7.057432338929243e-06 3.0397413373838466e-05  0.
-8.672375920287965e-06 3.0378425771984482e-05  0.
-1.030782352018206e-05 3.08626887257378e-05  0.
-1.1854425889448903e-05 3.1428602013114447e-05  0.
-1.330319211107684e-05 3.156415450967267e-05  0.
-1.469694105972564e-05 3.1977053562910084e-05  0.
-1.6019727575916738e-05 3.2472221058949124e-05  0.
-1.7351228399993658e-05 3.277081530938837e-05  0.
0.0 3.467552715061597e-05  0.
-1.7420002515813208e-09 3.467543214917471e-05  0.
-7.843979208082781e-09 3.467490198300792e-05  0.
-2.9690228763941453e-08 3.46728025331956e-05  0.
-9.654396958112195e-08 3.466574330798992e-05  0.
-2.6678677361231966e-07 3.464581248007976e-05  0.
-6.195316628577676e-07 3.459955062350586e-05  0.
-1.2009197196121165e-06 3.4513416159058555e-05  0.
-1.9558969379316464e-06 3.438736217322005e-05  0.
-2.7708732831273486e-06 3.423907613723086e-05  0.
-3.6553974741507944e-06 3.4072828664260374e-05  0.
-4.7590757105721785e-06 3.384975000114818e-05  0.
-6.098313729118468e-06 3.3563529106021085e-05  0.
-7.571126115014449e-06 3.336458977003772e-05  0.
-9.181002793936856e-06 3.3458936407463814e-05  0.
-1.0766347264127276e-05 3.379559511047016e-05  0.
-1.224469250315252e-05 3.404255177174385e-05  0.
-1.3766768334868098e-05 3.419556442044471e-05  0.
-1.5056515360053767e-05 3.456242445089189e-05  0.
-1.6475184953404115e-05 3.4747676845655076e-05  0.
-1.7513826073746618e-05 3.508512247615271e-05  0.
0.0 3.707190335214056e-05  0.
-1.887247121150799e-09 3.707185195147683e-05  0.
-8.509613089476599e-09 3.707156477299919e-05  0.
-3.2236561315649946e-08 3.7070426538804774e-05  0.
-1.0479618562144718e-07 3.7066600123783994e-05  0.
-2.889973441327498e-07 3.7055820179961447e-05  0.
-6.678863331442859e-07 3.7030938226568915e-05  0.
-1.2834244588946204e-06 3.698514312650862e-05  0.
-2.063570836242212e-06 3.691952123606659e-05  0.
-2.8852505999513114e-06 3.684447592946809e-05  0.
-3.7930840432649485e-06 3.676029534374828e-05  0.
-4.980956791606289e-06 3.664185618345204e-05  0.
-6.403072442159405e-06 3.6491739740921235e-05  0.
-7.858138356739653e-06 3.641046964943e-05  0.
-9.444446844329736e-06 3.649153860187585e-05  0.
-1.107584592529409e-05 3.664217675988583e-05  0.
-1.2501147887371853e-05 3.6739959854216436e-05  0.
-1.3950887448879601e-05 3.6855816700846815e-05  0.
-1.530109862185081e-05 3.6991768928249034e-05  0.
-1.661833350412461e-05 3.71761447118191e-05  0.
-1.7770595197255513e-05 3.734696251283315e-05  0.
0.0 3.945000000000012e-05  0.
-1.938244605324192e-09 3.945000000000012e-05  0.
-8.743537173076661e-09 3.945000000000012e-05  0.
-3.3131889228574775e-08 3.945000000000012e-05  0.
-1.0769686093135916e-07 3.945000000000012e-05  0.
-2.9679012614740224e-07 3.945000000000012e-05  0.
-6.847743946153452e-07 3.945000000000012e-05  0.
-1.3119621176553913e-06 3.945000000000012e-05  0.
-2.100146406018079e-06 3.945000000000012e-05  0.
-2.923318808023063e-06 3.945000000000012e-05  0.
-3.839955180942286e-06 3.945000000000012e-05  0.
-5.0596507992242655e-06 3.945000000000012e-05  0.
-6.508707803294176e-06 3.945000000000012e-05  0.
-7.947107035898074e-06 3.945000000000012e-05  0.
-9.526400852834732e-06 3.945000000000012e-05  0.
-1.1193573401234527e-05 3.945000000000012e-05  0.
-1.2573638061072617e-05 3.945000000000012e-05  0.
-1.3986239280811126e-05 3.945000000000012e-05  0.
-1.543950671420823e-05 3.945000000000012e-05  0.
-1.657331682697319e-05 3.945000000000012e-05  0.
-1.8032824396484674e-05 3.945000000000012e-05  0.
</DataArray>
<DataArray type="Float64" Name="sigma_xx" NumberOfComponents="1" format="ascii" >
134938.18364331828 
134937.79972431058 
134936.15760645777 
134931.37890359104 
134918.8158160763 
134888.24287450901 
134818.97418039507 
134672.28392637917 
134380.90324188187 
133836.23888630344 
132875.25656410778 
131270.41240675314 
128727.0727845568 
124892.93935756813 
119382.58672633536 
111816.87957078076 
101868.26007843594 
89244.52848234618 
73043.86858164033 
45085.47030663278 
26310.374075255706 
380396.50945410604 
380395.6501258975 
380391.9101974305 
380380.77177944814 
380350.81673001 
380276.3786091899 
380104.4841557825 
379734.1262855357 
378986.88146026083 
377570.24687234394 
375038.78601904394 
370762.48417560174 
363915.1623775343 
353496.53207908385 
338397.96843201923 
317512.911851539 
289867.4186966348 
254592.59385407763 
209304.16239132156 
136764.21504162645 
89860.13097450613 
1271214.8003662156 
1271212.0528928223 
1271199.9258922408 
1271163.1756012526 
1271062.8341137976 
1270810.512129899 
1270222.7931851852 
1268949.3507122726 
1266372.4892274877 
1261484.7932716135 
1252764.7524399108 
1238084.1302717351 
1214689.830396026 
1179300.9269548345 
1128344.8164538464 
1058321.4552417672 
966185.7673888521 
849025.0373922396 
697951.114927808 
456939.59642544837 
301778.6133712451 
3354435.334814897 
3354427.322966895 
3354391.5892333537 
3354282.0120332898 
3353980.207902026 
3353217.6435382413 
3351439.853790976 
3347598.545168167 
3339873.689615371 
3325358.0220723823 
3299774.305615631 
3257327.122228861 
3190796.163399575 
3091944.648679958 
2952242.5374379675 
2763788.776190567 
2519971.13012107 
2213255.6856152667 
1814764.877074878 
1170142.1419663564 
753779.7977233747 
7190545.488781894 
7190523.96047071 
7190427.104440179 
7190127.421679149 
7189297.793261718 
7187200.646860676 
7182332.1634347625 
7171904.80267656 
7151210.095500674 
7112992.905687576 
7047056.9509771485 
6940355.927749648 
6777756.951669615 
6543478.677392412 
6222952.415089037 
5804525.312272666 
5279349.732670542 
4631393.519528996 
3780453.0635421453 
2385244.333066232 
1483276.9848157167 
12155628.02998903 
12155574.572939036 
12155332.386482563 
12154578.40896627 
12152488.005011639 
12147224.884218942 
12135123.517757038 
12109596.746488381 
12059980.925302465 
11970748.262555227 
11821653.02160806 
11589281.557730876 
11250074.36741186 
10784249.920837417 
10179424.120870264 
9432005.480862515 
8541485.419531405 
7477106.853793489 
6051553.539502317 
3687551.8728590943 
2165978.485558244 
15652460.711102407 
15652337.767955609 
15651777.77879116 
15650028.275642358 
15645187.316617934 
15633100.56124155 
15605725.51199948 
15549235.368065719 
15442584.711120939 
15257651.024521241 
14962038.856713176 
14524920.69997421 
13924906.897657454 
13157520.781970762 
12238886.024806995 
11201338.018761316 
10069475.129816629 
8776517.238710562 
6961980.472819778 
3969179.2776837545 
2086071.9172646517 
15213727.90326384 
15213464.750677796 
15212261.28417884 
15208496.568630699 
15198131.308272472 
15172569.975072792 
15115838.624561561 
15002073.534246512 
14795195.615016416 
14452970.166621592 
13936624.091587368 
13224658.350436393 
12326411.939059671 
11289079.448762072 
10192428.970145475 
9124744.001817606 
8119660.997617748 
7002515.965498815 
5222207.841257461 
2511109.128425884 
952114.5337224621 
12602666.863020074 
12602139.61104497 
12599721.060250504 
12592158.452077603 
12571491.470391484 
12521329.051328965 
12412759.310801413 
12202552.977102323 
11837504.067117497 
11267840.445301725 
10468600.494540177 
9461757.74370723 
8327849.234837115 
7196698.339580726 
6213454.5515672155 
5474967.46134595 
4910968.341703659 
4101882.5675599924 
2439013.931766046 
558011.9163765472 
-206714.65811823076 
12327327.445359806 
12326335.358330257 
12321774.642091114 
12307539.686070576 
12269009.880409798 
12177264.861779075 
11984548.730752675 
11626726.004014172 
11038808.465162173 
10184403.320520438 
9089700.333838094 
7863047.659990557 
6681303.446915626 
5738023.873464063 
5161803.620777225 
4911161.794234615 
4625018.057122377 
3581809.6091106264 
1507710.5709110782 
-35924.971954328474 
-325908.5502000116 
14018224.524865286 
14016469.595361756 
14008390.636378353 
13983251.624896552 
13915984.567708502 
13759337.49314702 
13441566.18724651 
12879914.643981058 
12016146.394099457 
10865339.400090422 
9550406.80665784 
8289722.701387979 
7323508.550305052 
6804032.781004271 
6686726.778309262 
6634404.648463177 
5954867.543362031 
3967232.7705878504 
1348754.200355487 
-35434.419705437496 
-182385.37528098747 
13686821.352681765 
13683897.329130221 
13670425.625608398 
13628672.74203642 
13518383.472436268 
13267862.552518304 
12779391.071056452 
11963870.416244674 
10803906.879792735 
9413539.000659816 
8040175.01304788 
6976605.494703742 
6410687.041824246 
6292576.769879324 
6290765.3849005895 
5795284.134619887 
4115513.6241773916 
1349207.6306836354 
-627405.5563492833 
-653875.8761432667 
-255226.07700560708 
12853082.446173485 
12848483.026876632 
12827284.611017771 
12761880.796076458 
12591478.1502706 
12214650.247895963 
11511409.026942365 
10411164.98412653 
8983068.047933385 
7477445.955166276 
6243343.637973616 
5532453.851612082 
5320062.40197061 
5263691.188970203 
4824905.108806899 
3431126.646218094 
916233.9577309664 
-1463101.4346427743 
-1674869.174287382 
-320471.1256894774 
375734.29032882536 
13596342.13758859 
13589504.284303889 
13557988.084549583 
13461217.304319158 
13212623.466955325 
12678079.428524476 
11726793.564634152 
10343806.324955512 
8731559.676738156 
7278192.783813672 
6341098.62847437 
5967293.674857618 
5819671.735235362 
5376711.744206133 
4178823.6319758426 
2088509.636587058 
-306179.65138252964 
-1233787.336450498 
-253274.05922007328 
391688.89352458925 
267881.18377424683 
13433040.049791023 
13423420.652703026 
13379092.953272924 
13243639.726508016 
12900476.636157325 
12183168.408961738 
10969037.7073799 
9342688.252875611 
7671976.790051926 
6427567.86223978 
5822653.815328291 
5577291.12971275 
5112749.297197306 
4042251.3722503018 
2288614.638709249 
198075.25184263894 
-1163608.1503519856 
-792056.0787273902 
46327.062089455314 
-280263.219048362 
-756114.8308235807 
13210655.527650047 
13197835.655842662 
13138778.699713098 
12959137.9618106 
12509932.998123195 
11596296.971590312 
10126663.381549347 
8326292.952180415 
6732899.909156153 
5787439.939884312 
5393959.121003142 
4968547.326076822 
3958797.1627053157 
2409042.185383531 
703384.4215005056 
-750312.4085286751 
-1004667.1209684189 
-459100.13004259625 
-376044.9933420669 
-285938.3301617997 
-79578.43845942337 
13490461.063314097 
13474263.538444983 
13399674.7531659 
13173711.80271862 
12615225.644062737 
11507491.211585313 
9811378.492102329 
7920187.640177841 
6515673.844031802 
5869103.557191462 
5459513.41033331 
4607644.143618733 
3154704.503758556 
1551860.669114493 
393548.1324609327 
-308114.3969824761 
-210039.01222336758 
-435.0512039610185 
-274249.6497434848 
-199526.628592744 
-28948.32706699334 
13304701.505219046 
13285285.761696402 
13195909.32542459 
12926063.887257082 
12265568.779061029 
10983338.262500193 
9105313.62986589 
7197271.464599195 
6039183.62779201 
5617017.439114841 
4961270.914378937 
3610770.977297256 
2093035.3707853563 
826983.452896443 
163437.14058043854 
-121805.66520498274 
-333166.59780992824 
-67140.68697813363 
-156479.98618218862 
-369785.78886598325 
-196847.70438669017 
13367428.711628038 
13345337.629297856 
13243675.468711246 
12937515.017338678 
12193587.223021362 
10773019.658587897 
8765325.684079563 
6885968.664280025 
5965730.627808732 
5667464.294331981 
4644112.187824592 
2892263.4972395385 
1699064.8998034876 
874285.7352711661 
175946.06017839187 
85589.85622107168 
-181470.6511390456 
50902.12210499868 
32132.115325384773 
298670.2837569914 
1178397.574004944 
13381189.624852154 
13357323.092548989 
13247511.281269051 
12917327.3855476 
12118658.249884639 
10609349.118896786 
8525329.600508165 
6683730.543990891 
5933197.872580375 
5681298.23850921 
4337492.220537694 