<?xml version="1.0"?>
<VTKFile type="UnstructuredGrid" version="0.1" byte_order="LittleEndian" compressor="vtkZLibDataCompressor">
<UnstructuredGrid>
<Piece NumberOfPoints="441" NumberOfCells="400">
<PointData>
<DataArray type="Float64" Name="displacement" NumberOfComponents="3" format="ascii" >
0.0 3.489650228201973e-15  0.
1.1762012507085127e-21 3.4896404992514187e-15  0.
-1.1076464553109982e-21 3.489640941022925e-15  0.
-7.013850668310739e-21 3.4896339223093824e-15  0.
-2.554554374307541e-20 3.4895916857182445e-15  0.
-7.637584363105517e-20 3.4895004458744814e-15  0.
-2.286408512585282e-19 3.4892460195721364e-15  0.
-6.196519176857072e-19 3.4884790313315574e-15  0.
-1.5388472965845113e-18 3.4865710114126235e-15  0.
-3.5058454682620955e-18 3.482050196327625e-15  0.
-7.354030359950113e-18 3.47230889601706e-15  0.
-1.4309365260805737e-17 3.4527845685278116e-15  0.
-2.5971139107374616e-17 3.416398507529437e-15  0.
-4.400392289263246e-17 3.353078626296384e-15  0.
-6.992566660180995e-17 3.249772733424034e-15  0.
-1.0446849628099326e-16 3.0914242609400836e-15  0.
-1.47031361177759e-16 2.8627805842519227e-15  0.
-1.953798047620645e-16 2.551201337829895e-15  0.
-2.462521892627225e-16 2.1504501593291326e-15  0.
-3.1366990399310765e-16 1.678989517596806e-15  0.
-8.215460711365208e-16 1.6874935729677605e-15  0.
0.0 2.443163265913482e-14  0.
-5.367701007901588e-21 2.4431633909418613e-14  0.
-4.673048466892858e-21 2.443162910155116e-14  0.
-2.355640289690687e-20 2.4431607448122273e-14  0.
-1.008718981675193e-19 2.4431513377861573e-14  0.
-3.63279566805325e-19 2.4431147384917442e-14  0.
-1.1669960163655466e-18 2.4429886220114695e-14  0.
-3.3964992983625996e-18 2.4426099291950323e-14  0.
-8.889963113091809e-18 2.441580020760143e-14  0.
-2.1160570216002692e-17 2.4390392477255827e-14  0.
-4.614956682219054e-17 2.433308064660795e-14  0.
-9.284651674484834e-17 2.4214087095030903e-14  0.
-1.7313050010659581e-16 2.3985326074806234e-14  0.
-3.005636076157655e-16 2.3576324257602293e-14  0.
-4.874985508207835e-16 2.28936729852043e-14  0.
-7.409505667349238e-16 2.182665742504828e-14  0.
-1.0579560242098849e-15 2.0260705516854442e-14  0.
-1.4222431736823006e-15 1.8098214223974924e-14  0.
-1.8088633210006876e-15 1.528876209518397e-14  0.
-2.326395210336598e-15 1.2000915167887604e-14  0.
-6.636423721471909e-15 1.2310289667024565e-14  0.
0.0 3.0270637143871747e-13  0.
-7.368837347661681e-21 3.0270637847325577e-13  0.
-2.6439108798929734e-20 3.0270634930908557e-13  0.
-1.4888325612019023e-19 3.027062255105774e-13  0.
-7.035680654743478e-19 3.0270560382637e-13  0.
-2.8616438226334778e-18 3.0270286795409756e-13  0.
-1.0082080483623295e-17 3.026927093644941e-13  0.
-3.135980512069348e-17 3.0265960591783076e-13  0.
-8.695769409260624e-17 3.025638406285293e-13  0.
-2.1756013771972503e-16 3.023147047286408e-13  0.
-4.951754850095833e-16 3.0172640622866704e-13  0.
-1.0331373688699908e-15 3.0045574316323095e-13  0.
-1.9874110591819093e-15 2.979293002771391e-13  0.
-3.5428545258168496e-15 2.932806147630881e-13  0.
-5.8766047338255936e-15 2.8533006163673867e-13  0.
-9.101648962231596e-15 2.7264448679209516e-13  0.
-1.3199725007098051e-14 2.537042490712018e-13  0.
-1.7970873858863613e-14 2.2717799078195136e-13  0.
-2.3089448510114797e-14 1.92335924215017e-13  0.
-2.9973921866304155e-14 1.51322802686152e-13  0.
-8.514970263878137e-14 1.5599005838672663e-13  0.
0.0 3.340296195907265e-12  0.
-1.6352167722031467e-20 3.340296186066043e-12  0.
-1.205007530337762e-19 3.3402961090245716e-12  0.
-7.927043260015917e-19 3.34029548158283e-12  0.
-4.2549769611346025e-18 3.3402919247668344e-12  0.
-1.9223073683655974e-17 3.3402747302921846e-12  0.
-7.425256271381496e-17 3.340204359529052e-12  0.
-2.4904569264797794e-16 3.3399556123178362e-12  0.
-7.370284252178129e-16 3.3391836348629018e-12  0.
-1.9477927271589206e-15 3.337052492035689e-12  0.
-4.646428845441464e-15 3.3317592860130806e-12  0.
-1.0087484593108012e-14 3.3198243300374887e-12  0.
-2.0074563458315257e-14 3.295209263296877e-12  0.
-3.682652898454643e-14 3.248487091426874e-12  0.
-6.258234428416887e-14 3.166448195534659e-12  0.
-9.8904564421003e-14 3.0326252490644154e-12  0.
-1.458520805611321e-13 2.829114077270754e-12  0.
-2.0127498453193418e-13 2.5397838693406263e-12  0.
-2.6150892260849307e-13 2.1553491648260557e-12  0.
-3.438425475899648e-13 1.70116745240771e-12  0.
-9.662373001433242e-13 1.7624487575140058e-12  0.
0.0 3.24089133585847e-11  0.
-6.30400527801112e-20 3.2408913322019894e-11  0.
-5.001762113681475e-19 3.240891298830585e-11  0.
-3.605139170178961e-18 3.240891041598397e-11  0.
-2.1690882399312027e-17 3.240889373435433e-11  0.
-1.0934186969795379e-16 3.2408803384012145e-11  0.
-4.645785704615461e-16 3.240839332013494e-11  0.
-1.694346509230087e-15 3.240680645684351e-11  0.
-5.381227098029038e-15 3.240148891444644e-11  0.
-1.5108796975203057e-14 3.2385814849117085e-11  0.
-3.792654663975617e-14 3.2344666924714985e-11  0.
-8.599434338760619e-14 3.2247414898600464e-11  0.
-1.7750673121247705e-13 3.20386908676451e-11  0.
-3.3587403338937706e-13 3.162893327362531e-11  0.
-5.857435326509268e-13 3.0888763344687376e-11  0.
-9.459140967882676e-13 2.965241740537301e-11  0.
-1.4198305964511932e-12 2.7734993765672342e-11  0.
-1.987718844314159e-12 2.496518290306688e-11  0.
-2.6136056084218272e-12 2.1240216293671087e-11  0.
-3.4853384682587176e-12 1.6827373521768638e-11  0.
-9.662975622725286e-12 1.753801584283589e-11  0.
0.0 2.7384376228721794e-10  0.
-1.9987924639766279e-19 2.7384376218274006e-10  0.
-1.7880070854226568e-18 2.738437611041444e-10  0.
-1.40723939612899e-17 2.73843751923887e-10  0.
-9.372649167724369e-17 2.7384368611067623e-10  0.
-5.242451924525967e-16 2.738432895156245e-10  0.
-2.4633193833317525e-15 2.7384128593040696e-10  0.
-9.80710686491284e-15 2.7383276129761825e-10  0.
-3.363618846109777e-14 2.7380171105981843e-10  0.
-1.0076297412654452e-13 2.737034758266228e-10  0.
-2.673600919652022e-13 2.7342953563189976e-10  0.
-6.35071348782779e-13 2.7274827600484803e-10  0.
-1.3635999021915037e-12 2.712218273002764e-10  0.
-2.666485867064754e-12 2.681148745276031e-10  0.
-4.7802083278743526e-12 2.623299587978486e-10  0.
-7.89703716226387e-12 2.524207279900822e-10  0.
-1.2076878988026289e-11 2.3673062083407174e-10  0.
-1.7163399499230583e-11 2.1368246430716388e-10  0.
-2.285708910905604e-11 1.822983786077807e-10  0.
-3.0960370089836367e-11 1.4507647436964533e-10  0.
-8.440024077903288e-11 1.5230010505675869e-10  0.
0.0 1.9928840557934468e-09  0.
-5.682390769956826e-19 1.9928840555401086e-09  0.
-5.621723282521111e-18 1.992884052429769e-09  0.
-4.7897697180633133e-17 1.9928840239411624e-09  0.
-3.483823505281638e-16 1.992883801260486e-09  0.
-2.1408778997093984e-15 1.9928823265533465e-09  0.
-1.1066437329322654e-14 1.9928741103369635e-09  0.
-4.8232539830277236e-14 1.9928356061280672e-09  0.
-1.7903986497186668e-13 1.9926828260093806e-09  0.
-5.747122290969029e-13 1.992161703934026e-09  0.
-1.6163662144131792e-12 1.990612675389168e-09  0.
-4.034682385150868e-12 1.986545281474558e-09  0.
-9.029031476421856e-12 1.9770065995863097e-09  0.
-1.828036820461253e-11 1.956834048089793e-09  0.
-3.3724376111487914e-11 1.9180605561475117e-09  0.
-5.7048818271556534e-11 1.849873529473175e-09  0.
-8.893387194996429e-11 1.7395613214973595e-09  0.
-1.2836858333450513e-10 1.5746990435440855e-09  0.
-1.7325192141170797e-10 1.3474138109251248e-09  0.
-2.387662958635499e-10 1.0782887127176786e-09  0.
-6.37162236169031e-10 1.1420756847712301e-09  0.
0.0 1.232974863482725e-08  0.
-1.4953408355713317e-18 1.2329748634168157e-08  0.
-1.577563008578744e-17 1.2329748626181652e-08  0.
-1.4412567033284623e-16 1.2329748548295841e-08  0.
-1.1307030335904827e-15 1.2329747892396621e-08  0.
-7.545432412679687e-15 1.2329743180058921e-08  0.
-4.2528670468725135e-14 1.232971452835801e-08  0.
-2.019585984929013e-13 1.2329567838456968e-08  0.
-8.118102223412131e-13 1.2328934097001124e-08  0.
-2.7935888238398074e-12 1.2326603478413213e-08  0.
-8.345180282884378e-12 1.2319204512956577e-08  0.
-2.1914370204687204e-11 1.2298662543656847e-08  0.
-5.1185057385228645e-11 1.2248163347072416e-08  0.
-1.0735945997398444e-10 1.2137095938270015e-08  0.
-2.0393969670672595e-10 1.1916565469466159e-08  0.
-3.5327186171615097e-10 1.1518300435750087e-08  0.
-5.613970159935303e-10 1.0859974005900206e-08  0.
-8.22891122300455e-10 9.859225196128485e-09  0.
-1.1260362655908598e-09 8.463618961267001e-09  0.
-1.5816152310540725e-09 6.821650751496317e-09  0.
-4.10748976277932e-09 7.305864078508057e-09  0.
0.0 6.3859897058165e-08  0.
-3.586489467222731e-18 6.385989705671007e-08  0.
-4.000200460007497e-17 6.385989703837487e-08  0.
-3.8761223086448328e-16 6.385989684852993e-08  0.
-3.2462207603096287e-15 6.385989514510369e-08  0.
-2.3267017425778225e-14 6.385988201798663e-08  0.
-1.4152901629175843e-13 6.385979593276331e-08  0.
-7.266511907855907e-13 6.385931884874081e-08  0.
-3.1486020687479194e-12 6.38570907344628e-08  0.
-1.1594772038448635e-11 6.384828192406053e-08  0.
-3.673730657181575e-11 6.381848266679057e-08  0.
-1.0144174217949504e-10 6.373109066188355e-08  0.
-2.4708307368757687e-10 6.350612692726278e-08  0.
-5.365536129113358e-10 6.299201590101941e-08  0.
-1.048365465368905e-09 6.193875137054214e-08  0.
-1.8576759153071552e-09 5.998790021606432e-08  0.
-3.0055470940179764e-09 5.669782959623357e-08  0.
-4.4693011459600435e-09 5.161885099184702e-08  0.
-6.199689580498747e-09 4.447226373238276e-08  0.
-8.890147641230695e-09 3.618860987053589e-08  0.
-2.229337233543755e-08 3.9309157437318186e-08  0.
0.0 2.718115211458333e-07  0.
-7.904693090565669e-18 2.7181152114296456e-07  0.
-9.224396992270217e-17 2.718115211047184e-07  0.
-9.40802582812246e-16 2.7181152068881096e-07  0.
-8.334480096016792e-15 2.718115167480387e-07  0.
-6.352929272737027e-14 2.718114845030777e-07  0.
-4.129191177351015e-13 2.718112587910685e-07  0.
-2.2716502247532147e-12 2.7180991866004456e-07  0.
-1.053939794512996e-11 2.718032069971506e-07  0.
-4.133783922384338e-11 2.7177486566640277e-07  0.
-1.383527737809981e-10 2.7167324949580865e-07  0.
-4.0030978768107363e-10 2.713599859107958e-07  0.
-1.0134073206102845e-09 2.705193022656383e-07  0.
-2.27109817909392e-09 2.685314834105195e-07  0.
-4.54964338876072e-09 2.643467453834458e-07  0.
-8.220382567465504e-09 2.5642989745120113e-07  0.
-1.3498330746648171e-08 2.4286339942747173e-07  0.
-2.030821975390877e-08 2.216850253349744e-07  0.
-2.852692970394144e-08 1.9179008548857428e-07  0.
-4.181737425704074e-08 1.5818886581790568e-07  0.
-1.0018917012007324e-07 1.7500813224207858e-07  0.
0.0 9.296687038242916e-07  0.
-1.602771632773715e-17 9.296687038190362e-07  0.
-1.9482558841262937e-16 9.296687037463941e-07  0.
-2.0759169010113013e-15 9.296687029227638e-07  0.
-1.929832359753083e-14 9.296686947470515e-07  0.
-1.5508307569811738e-13 9.296686243298456e-07  0.
-1.0672705738938871e-12 9.296681031159384e-07  0.
-6.235879675587169e-12 9.296648185470767e-07  0.
-3.07403047989374e-11 9.296473341396082e-07  0.
-1.2765270947111348e-10 9.295690280504565e-07  0.
-4.4890905791824743e-10 9.292732991362882e-07  0.
-1.3524128127628453e-09 9.283224444983476e-07  0.
-3.5374920445442734e-09 9.256830531856991e-07  0.
-8.12797966577547e-09 9.192808529225594e-07  0.
-1.6592485498382844e-08 9.055474105402313e-07  0.
-3.037371368534172e-08 8.79236910055965e-07  0.
-5.032032437541856e-08 8.338135771027379e-07  0.
-7.618738167051706e-08 7.627470318541564e-07  0.
-1.0809856602025912e-07 6.633270099785321e-07  0.
-1.6203506717290535e-07 5.58366686743909e-07  0.
-3.656099761331144e-07 6.327810829086445e-07  0.
0.0 2.489093769036163e-06  0.
-3.007716219295984e-17 2.4890937690273356e-06  0.
-3.78264812906339e-16 2.489093768901779e-06  0.
-4.184236018096955e-15 2.489093767425564e-06  0.
-4.053413362018221e-14 2.4890937521766502e-06  0.
-3.407827473778933e-13 2.4890936149638764e-06  0.
-2.4628543058421467e-12 2.4890925497487513e-06  0.
-1.515633454543121e-11 2.4890854858670185e-06  0.
-7.877321943908257e-11 2.4890458448937892e-06  0.
-3.4407153342150803e-10 2.488858934654849e-06  0.
-1.2641912032011947e-09 2.488120116460808e-06  0.
-3.940173792884352e-09 2.485658991312139e-06  0.
-1.0559192427675853e-08 2.47866497320016e-06  0.
-2.465838702123731e-08 2.461459755765307e-06  0.
-5.0784753138395514e-08 2.4243602541487585e-06  0.
-9.327834683793167e-08 2.353396309397419e-06  0.
-1.5434324262571396e-07 2.2318422715327753e-06  0.
-2.331447908118302e-07 2.0444694215940683e-06  0.
-3.324884729095963e-07 1.791212042537992e-06  0.
-5.086197383234106e-07 1.557818724939773e-06  0.
-1.0596632113124479e-06 1.8215064119964812e-06  0.
0.0 5.093532227554948e-06  0.
-5.226827870853795e-17 5.093532227541423e-06  0.
-6.767272426187375e-16 5.0935322273442305e-06  0.
-7.728283751137339e-15 5.093532224953192e-06  0.
-7.753532737511341e-14 5.093532199400547e-06  0.
-6.773351647306728e-13 5.09353196074787e-06  0.
-5.102880699707653e-12 5.0935300314122e-06  0.
-3.282314468797906e-11 5.093516669318017e-06  0.
-1.7853069231745337e-10 5.093438219584188e-06  0.
-8.148329103054381e-10 5.093051493631101e-06  0.
-3.1105317848754568e-09 5.091461075157575e-06  0.
-9.971165828029348e-09 5.0860054825658556e-06  0.
-2.715884209583547e-08 5.070261302137307e-06  0.
-6.380640835986248e-08 5.031469219240725e-06  0.
-1.3102040461304825e-07 4.948694646309088e-06  0.
-2.3829672083321805e-07 4.793664021738206e-06  0.
-3.885236551020488e-07 4.53614330535008e-06  0.
-5.782506958255421e-07 4.156600002001908e-06  0.
-8.228307905248267e-07 3.6873648569959647e-06  0.
-1.2747106032657626e-06 3.3854035492172642e-06  0.
-2.3897598990514643e-06 4.109351636689485e-06  0.
0.0 7.971073363424841e-06  0.
-8.43604690727467e-17 7.97107336340599e-06  0.
-1.1192022212218175e-15 7.971073363124527e-06  0.
-1.3130389763454175e-14 7.97107335962086e-06  0.
-1.35680607199317e-13 7.971073321085901e-06  0.
-1.2241504780134204e-12 7.971072949688166e-06  0.
-9.5507307092649e-12 7.97106984285134e-06  0.
-6.376777727340774e-11 7.971047522623798e-06  0.
-3.604779605737573e-10 7.97091136689346e-06  0.
-1.708300067362072e-09 7.970214193563773e-06  0.
-6.739097713779899e-09 7.967247688174267e-06  0.
-2.2108762962437004e-08 7.956818352364751e-06  0.
-6.079818083208083e-08 7.926449519678933e-06  0.
-1.4232038886741952e-07 7.852291258897263e-06  0.
-2.881413428004592e-07 7.697864506456506e-06  0.
-5.116088210023648e-07 7.420309478060715e-06  0.
-8.103891469272212e-07 6.985140691745944e-06  0.
-1.172243515938851e-06 6.399748986489399e-06  0.
-1.6511153803789412e-06 5.815441918031609e-06  0.
-2.542429778560093e-06 5.815154322198795e-06  0.
-4.172233630204891e-06 7.288298372919886e-06  0.
0.0 1.0230083766860148e-05  0.
-1.2698321622386238e-16 1.0230083766836035e-05  0.
-1.719838543859434e-15 1.0230083766468949e-05  0.
-2.0636700929819468e-14 1.0230083761798938e-05  0.
-2.1856808800612826e-13 1.0230083709195004e-05  0.
-2.025751726729545e-12 1.0230083188806985e-05  0.
-1.627220014886653e-11 1.0230078710478409e-05  0.
-1.1207975914019985e-10 1.0230045543002323e-05  0.
-6.543861363642839e-10 1.0229836654902398e-05  0.
-3.2011271856431204e-09 1.0228732356822685e-05  0.
-1.2985858062890528e-08 1.0223895423989592e-05  0.
-4.342548752303878e-08 1.0206533412834097e-05  0.
-1.2000353159686133e-07 1.0155712061593073e-05  0.
-2.777280970312059e-07 1.0033647551906223e-05  0.
-5.488352236222365e-07 9.788906720144424e-06  0.
-9.418616647695891e-07 9.372666203637537e-06  0.
-1.433147111491725e-06 8.772542491837251e-06  0.
-2.005005535450925e-06 8.078847095103602e-06  0.
-2.7826486714255514e-06 7.684830629618855e-06  0.
-4.134841280635332e-06 8.49854774292703e-06  0.
-5.8669411361574895e-06 1.0586003367751124e-05  0.
0.0 1.2398835825153944e-05  0.
-1.789750220655892e-16 1.2398835825125734e-05  0.
-2.4652900379510074e-15 1.239883582468967e-05  0.
-3.013541172109307e-14 1.2398835819042382e-05  0.
-3.2570622843017464e-13 1.23988357541761e-05  0.
-3.086174413572958e-12 1.2398835098656753e-05  0.
-2.5390663139528913e-11 1.2398829325305771e-05  0.
-1.794185085784102e-10 1.2398785488695865e-05  0.
-1.0758469256681465e-09 1.2398502081027438e-05  0.
-5.403531010029298e-09 1.2396963744134369e-05  0.
-2.244048090970105e-08 1.239006018162997e-05  0.
-7.624997560201912e-08 1.2364839776028068e-05  0.
-2.1119229667876878e-07 1.2290759205059352e-05  0.
-4.809489544834475e-07 1.2116368267156808e-05  0.
-9.205269593789679e-07 1.1783106791850045e-05  0.
-1.5186321084301754e-06 1.125488227858609e-05  0.
-2.217462764562118e-06 1.0569658381440878e-05  0.
-3.030829640712526e-06 9.949869417768425e-06  0.
-4.1692085205282e-06 1.0046238854432747e-05  0.
-5.82166540450582e-06 1.1610074809634069e-05  0.
-7.359397361736658e-06 1.3465734104647289e-05  0.
0.0 1.4982462292714897e-05  0.
-2.3642339796769934e-16 1.498246229268521e-05  0.
-3.3008106213269827e-15 1.498246229222126e-05  0.
-4.0951662384460054e-14 1.4982462286125284e-05  0.
-4.4983294288148247e-13 1.498246221499177e-05  0.
-4.338135020718731e-12 1.4982461483679914e-05  0.
-3.6378951702647974e-11 1.4982454921568487e-05  0.
-2.6237306678400834e-10 1.4982404087842673e-05  0.
-1.6072311619408261e-09 1.4982068424677889e-05  0.
-8.246059558286831e-09 1.498020701891729e-05  0.
-3.4906687765466334e-08 1.49716854421839e-05  0.
-1.2017754553621569e-07 1.494008752920194e-05  0.
-3.3322039409514897e-07 1.4846997897543969e-05  0.
-7.456776911060543e-07 1.4632144003192891e-05  0.
-1.376901656859732e-06 1.4242933830073908e-05  0.
-2.181573387711842e-06 1.3676965556353492e-05  0.
-3.0944510690575864e-06 1.3033671557121123e-05  0.
-4.196261046410375e-06 1.2684335527078619e-05  0.
-5.759682247751485e-06 1.3311739166182655e-05  0.
-7.487747403973647e-06 1.4808845895250124e-05  0.
-8.896380892122438e-06 1.5668083767863038e-05  0.
0.0 1.7293927829452237e-05  0.
-2.9311991632642453e-16 1.729392782942476e-05  0.
-4.134618889163505e-15 1.7293927828991028e-05  0.
-5.188070032826269e-14 1.7293927823228853e-05  0.
-5.769622162291352e-13 1.7293927755182833e-05  0.
-5.639418817907667e-12 1.7293927046448347e-05  0.
-4.798429497558605e-11 1.729392059649628e-05  0.
-3.515061399035403e-10 1.7293869866009652e-05  0.
-2.1886473948263375e-09 1.7293529459834264e-05  0.
-1.1413913866539612e-08 1.7291610549064073e-05  0.
-4.9037616686181995e-08 1.7282688885585608e-05  0.
-1.7057751814074885e-07 1.7249212892265344e-05  0.
-4.732529560673187e-07 1.7150299384158462e-05  0.
-1.042159667757224e-06 1.6925738202702252e-05  0.
-1.8580018689076613e-06 1.6539800648551935e-05  0.
-2.836218867039436e-06 1.603333447331964e-05  0.
-3.975744019379467e-06 1.555591714568934e-05  0.
-5.384857752653101e-06 1.5531538716682287e-05  0.
-7.195848336028842e-06 1.640071960959086e-05  0.
-8.791348117995652e-06 1.724470119409176e-05  0.
-1.003391659181844e-05 1.7531825124867295e-05  0.
0.0 1.9667782992575433e-05  0.
-3.4153475541345707e-16 1.966778299255413e-05  0.
-4.8527087903136986e-15 1.9667782992215478e-05  0.
-6.137941478629137e-14 1.966778298768218e-05  0.
-6.885607353940551e-13 1.966778293369745e-05  0.
-6.794206552407715e-12 1.9667782366268592e-05  0.
-5.840528005464939e-11 1.9667777150923547e-05  0.
-4.3256540409728207e-10 1.9667735692166773e-05  0.
-2.724544407327797e-09 1.9667454345949135e-05  0.
-1.4373973728833066e-08 1.9665849983389437e-05  0.
-6.24120333962331e-08 1.9658308501816697e-05  0.
-2.1873656228330537e-07 1.9629764640760663e-05  0.
-6.072032910995814e-07 1.9545208220191062e-05  0.
-1.3207434475412022e-06 1.935546427648323e-05  0.
-2.287563191654936e-06 1.9043377790623374e-05  0.
-3.3850086719014497e-06 1.8678831432800862e-05  0.
-4.7287841369241125e-06 1.8426059896357283e-05  0.
-6.365814580052791e-06 1.857865851786636e-05  0.
-8.001179568625172e-06 1.923255346516867e-05  0.
-9.45151615406435e-06 1.9596422288564123e-05  0.
-1.0581090815045714e-05 2.003671717176443e-05  0.
0.0 2.2078956882971857e-05  0.
-3.7421408845476705e-16 2.2078956882960185e-05  0.
-5.340274156275089e-15 2.2078956882774437e-05  0.
-6.786765429262392e-14 2.2078956880275795e-05  0.
-7.652925631849503e-13 2.2078956850369345e-05  0.
-7.593904745576104e-12 2.207895653428077e-05  0.
-6.567812806555192e-11 2.2078953611592853e-05  0.
-4.896116372634254e-10 2.2078930227492953e-05  0.
-3.1050390686279705e-09 2.207877045145724e-05  0.
-1.6494750541020364e-08 2.2077852910053865e-05  0.
-7.207670237902749e-08 2.2073510672937043e-05  0.
-2.5376791034659595e-07 2.205698520581027e-05  0.
-7.047802648550736e-07 2.200792380749861e-05  0.
-1.5215512073817087e-06 2.189852741397626e-05  0.
-2.5866679363021933e-06 2.1723809719726648e-05  0.
-3.745441984297951e-06 2.1539014287940532e-05  0.
-5.204697559552881e-06 2.145810047908365e-05  0.
-6.9391439329552455e-06 2.1593819748888658e-05  0.
-8.340009432731834e-06 2.1837921212944466e-05  0.
-9.698646166420988e-06 2.201465096279438e-05  0.
-1.0933676442567518e-05 2.2420291360874858e-05  0.
0.0 2.444999999999996e-05  0.
-3.857620829096825e-16 2.444999999999996e-05  0.
-5.513046917181746e-15 2.444999999999996e-05  0.
-7.017369712283483e-14 2.444999999999996e-05  0.
-7.926553915622353e-13 2.444999999999996e-05  0.
-7.880114685677576e-12 2.444999999999996e-05  0.
-6.829129005223494e-11 2.444999999999996e-05  0.
-5.101954770455358e-10 2.444999999999996e-05  0.
-3.2429473820087318e-09 2.444999999999996e-05  0.
-1.7266958485093203e-08 2.444999999999996e-05  0.
-7.561124028521709e-08 2.444999999999996e-05  0.
-2.6662419495006456e-07 2.444999999999996e-05  0.
-7.406335491934864e-07 2.444999999999996e-05  0.
-1.5950089076148667e-06 2.444999999999996e-05  0.
-2.69422200668915e-06 2.444999999999996e-05  0.
-3.870024633217251e-06 2.444999999999996e-05  0.
-5.357230520079151e-06 2.444999999999996e-05  0.
-7.110584090766961e-06 2.444999999999996e-05  0.
-8.475403926989407e-06 2.444999999999996e-05  0.
-9.7749174830865e-06 2.444999999999996e-05  0.
-1.1084625561252688e-05 2.444999999999996e-05  0.
</DataArray>
<DataArray type="Float64" Name="sigma_xx" NumberOfComponents="1" format="ascii" >
0.11727472326583661 
0.11727472326583661 
0.11727472326583661 
0.11727473436806686 
0.11727340210043731 
0.11726876136819438 
0.11725553861197109 
0.11721950077259176 
0.11713214842501425 
0.11693749302210672 
0.11653377152143203 
0.11575480574066428 
0.1143536487724361 
0.11199116078941525 
0.10824267038245235 
0.10263361271967139 
0.09470140227563204 
0.08407194940218685 
0.07034560711716151 
0.04811950837790844 
0.03359195144270187 
0.83780662407662 
0.8378065463610083 
0.837806174436295 
0.8378050753155006 
0.8377991134178584 
0.8377772364731582 
0.8377083970945163 
0.837514158025243 
0.8370185322625898 
0.8358623182491696 
0.8333802259397058 
0.828446994338705 
0.819328033196953 
0.8035833054531591 
0.7780987965055883 
0.7393160972313237 
0.683684348024016 
0.6082583103861336 
0.5101407185570392 
0.3566651918252005 
0.25833516437145926 
9.284420832145198 
9.284420610100593 
9.284418611699149 
9.284409585585959 
9.284368468476242 
9.28420855750289 
9.283668539472597 
9.282049384662368 
9.277693518994209 
9.26707043324981 
9.24339210173208 
9.194808470169843 
9.102522469106585 
8.93943949420439 
8.670246054442995 
8.25377106106195 
7.648106647994975 
6.817556402749501 
5.725959889568697 
4.004192993845022 
2.898680551144393 
89.89738201625738 
89.89738098930108 
89.89737274034401 
89.89732548370097 
89.8970900997664 
89.89609474596702 
89.89246094714962 
89.88083098349084 
89.84775281550836 
89.76320476916652 
89.56706633589381 
89.15082959637385 
88.33726906076753 
86.86456841600074 
84.3839252973044 
80.48065527899159 
74.72421221232925 
66.73815539648406 
56.12368716434444 
39.17025282185181 
28.23954159958396 
757.4098699780761 
757.40986616446 
757.4098340845657 
757.4096262674688 
757.4084854078397 
757.4031960000391 
757.3822661421923 
757.3104500613324 
757.0938356515898 
756.5118297359061 
755.1039798103784 
752.0089958967799 
745.7785277942273 
734.2179238284394 
714.3406870052657 
682.5264470072809 
634.9457361304321 
568.1625878023453 
478.3476988096112 
332.95136691868777 
238.79260771519907 
5489.338833386535 
5489.338821179633 
5489.338709169231 
5489.337916980694 
5489.333168956498 
5489.309136680329 
5489.205951725306 
5488.825887717262 
5487.607241494439 
5484.160700564009 
5475.455940573413 
5455.622387587342 
5414.489532537535 
5336.27522119051 
5199.05517677721 
4975.787473587843 
4637.369177001858 
4157.038763138997 
3503.1476785185578 
2429.2873802511654 
1730.6233908609406 
33756.84109140352 
33756.8410559541 
33756.840708504256 
33756.83806094431 
33756.82089907238 
33756.726751821276 
33756.28982716371 
33754.56316882518 
33748.68108633188 
33731.16813718545 
33685.01422034152 
33576.097258328205 
33343.689452011706 
32891.46386089013 
32083.33433243059 
30749.008988170666 
28702.792036361378 
25769.88153158709 
21728.17243590307 
14989.69206365774 
10584.450667083796 
173235.37056596056 
173235.37047283506 
173235.36950628043 
173235.36165213533 
173235.3071135228 
173234.98562111234 
173233.38295022742 
173226.61361933162 
173202.17547440727 
173125.77262693358 
172916.19231418474 
172405.48373469716 
171287.8911459436 
169070.69211460894 
165050.22725560307 
158339.80571944566 
147966.35693094245 
132995.06447796978 
112123.61168712321 
76785.67693082946 
53573.25461736726 
726677.4808402874 
726677.4806162444 
726677.4781832739 
726677.4572849352 
726677.3031962267 
726676.335511178 
726671.191793987 
726648.0956889002 
726560.1050243151 
726272.5781024656 
725455.5986744817 
723411.3150369313 
718851.2939245881 
709689.1202632181 
692948.8209518967 
664907.025075506 
621508.7519563898 
558798.1558196867 
470518.4835349456 
318817.13297426933 
218733.8574261731 
2425597.514709831 
2425597.5142159485 
2425597.50863554 
2425597.4583446295 
2425597.0677362285 
2425594.475341308 
2425579.891612719 
2425510.709081668 
2425233.931222808 
2424293.433971702 
2421544.2431772533 
2414534.396466999 
2398745.254822909 
2366946.4043416292 
2309083.002840522 
2212986.6170089543 
2065920.273102872 
1855340.2000620188 
1557179.660086399 
1038394.8490421481 
695032.9345696777 
6216411.125201557 
6216411.124200074 
6216411.112478701 
6216411.002376519 
6216410.107928746 
6216403.880622437 
6216367.070931728 
6216183.762744701 
6215417.705526136 
6212724.469250325 
6204679.919317131 
6183974.245649033 
6137420.4030722035 
6044796.208563859 
5879742.353135817 
5613246.230111946 
5218233.640572382 
4668044.743402684 
3890275.8789364733 
2528642.493395865 
1627348.8116346926 
11684619.603511233 
11684619.601635538 
11684619.579011546 
11684619.35880455 
11684617.499589978 
11684604.011997504 
11684520.806511074 
11684088.556943974 
11682211.685748812 
11675417.088368576 
11654804.16992157 
11601745.52039 
11484163.595631843 
11256964.914023012 
10869099.350337368 
10277005.224386934 
9454698.85588266 
8375263.195454069 
6871224.533012779 
4266175.352911143 
2556465.895024105 
15391720.223188505 
15391720.219934966 
15391720.17966954 
15391719.775668716 
15391716.250710241 
15391689.766025236 
15391520.297087055 
15390607.27384312 
15386509.122337654 
15371297.160344686 
15324648.450709846 
15205531.526837934 
14948663.750963442 
14474872.090816155 
13719501.742175428 
12666168.47515599 
11359438.160822116 
9818826.248696204 
7743393.940952478 
4355856.584415127 
2210634.229432177 
14419817.747911017 
14419817.742663203 
14419817.676277447 
14419816.992800988 
14419810.860799365 
14419763.395939216 
14419450.085438482 
14417708.71329332 
14409665.676180542 
14379161.716516476 
14284906.088977605 
14047508.96268326 
13555106.864999387 
12703226.01403434 
11467225.422331207 
9954927.690835465 
8371699.497187557 
6781429.591553745 
4724465.530846095 
1967364.7498424954 
457337.9863386201 
12425193.409264686 
12425193.401362767 
12425193.299534433 
12425192.228177635 
12425182.388349101 
12425104.292497385 
12424575.099254265 
12421555.222076328 
12407261.794524398 
12352040.836114597 
12180446.260261225 
11755511.839768186 
10915791.186180074 
9578234.009595376 
7859018.373676693 
6100164.9536318015 
4627400.9480589125 
3335135.009152174 
1573459.1949730346 
57393.151848022826 
-350800.6104404037 
13338519.98191002 
13338519.970776819 
13338519.825091401 
13338518.264645273 
13338503.65338159 
13338385.270483963 
13337565.53413511 
13332784.205491725 
13309686.72997716 
13219052.395031828 
12936212.73259984 
12248341.483491063 
10961999.236988071 
9113414.711867478 
7073678.851411102 
5409273.567561021 
4311184.046281061 
3129201.473667348 
1301610.8522535898 
62097.42542050709 
-97265.36927382089 
13739908.005803298 
13739907.991100375 
13739907.796318632 
13739905.679913845 
13739885.554449601 
13739719.780844523 
13738551.82087232 
13731618.629572108 
13697568.696908046 
13562251.582314689 
13138605.825306054 
12125978.059493091 
10338180.70251453 
8065583.389450844 
5997254.530310461 
4651671.07091756 
3770157.3171778107 
2173799.0978593333 
233490.7817653108 
-714545.2105905055 
-895333.9152970985 
13149636.52813071 
13149636.50990208 
13149636.266126197 
13149633.588216148 
13149607.82074904 
13149392.878501844 
13147858.279508475 
13138625.024047762 
13092698.219403483 
12908369.981761267 
12329846.743722355 
10967396.774077827 
8688323.367664041 
6158157.9584985105 
4357698.470968646 
3277201.5654785596 
2119659.510019992 
161440.3547576503 
-1293221.3189043636 
-837054.398352965 
-188250.77286907192 
13430138.400388733 
13430138.379150726 
13430138.093236445 
13430134.928076787 
13430104.217450881 
13429845.750867665 
13427983.048703523 
13416668.335322574 
13359877.220504565 
13130327.276755698 
12408570.091903808 
10727772.12186503 
8037631.113562205 
5418836.853954589 
4053019.557493029 
3025158.5356908552 
1218714.5448569078 
-265093.2911042706 
-772060.5227272578 
193455.09233935643 
1256394.83548107 
13422227.310960583 
13422227.287690269 
13422226.973173775 
13422223.475333989 
13422189.368246822 
13421900.792574955 
13419809.483411573 
13407033.775153082 
13342562.412218016 
13080859.11931131 
12257091.747685114 
10352005.621841723 
7389837.667569004 
4779565.513785332 
3806533.882057619 