<?xml version="1.0"?>
<VTKFile type="UnstructuredGrid" version="0.1" byte_order="LittleEndian" compressor="vtkZLibDataCompressor">
<UnstructuredGrid>
<Piece NumberOfPoints="441" NumberOfCells="400">
<PointData>
<DataArray type="Float64" Name="displacement" NumberOfComponents="3" format="ascii" >
0.0 4.611066620506737e-28  0.
-5.313678873070826e-28 -8.747682568253061e-28  0.
-4.877995878844074e-28 7.446478860720681e-28  0.
1.6808261756963183e-28 -3.4800478645547084e-29  0.
6.599123062090266e-29 -6.508915920965807e-29  0.
-2.1160237266210475e-29 -2.2212683111445141e-29  0.
-1.6276802512830078e-28 -1.1838764205749537e-28  0.
-4.7103936045479886e-27 -4.386486379776045e-27  0.
-2.6246570521085895e-26 -1.8616143999610013e-26  0.
-5.793085100031146e-26 -1.0388167021092763e-26  0.
-8.693805856566081e-26 -1.8714095081719216e-26  0.
-1.595162443320716e-25 -5.568809131825499e-26  0.
-5.0104592974169465e-25 -2.997130282012695e-25  0.
-2.065579115966387e-24 -1.286247040228637e-24  0.
-8.639644918642974e-24 -3.641772935525812e-24  0.
-1.0193026746176798e-23 2.302673353051989e-24  0.
-6.414880523217929e-24 -2.536431468394853e-25  0.
-1.0395230553608284e-23 -2.678961315736381e-24  0.
-1.3895163788910196e-23 1.373800248941913e-25  0.
-9.772462581986165e-24 1.7983785274068163e-24  0.
-7.968642530333282e-24 8.059677203963567e-24  0.
0.0 1.2419181431146478e-20  0.
-2.9660781795895215e-25 1.2419765285390065e-20  0.
7.699373060958397e-27 1.2419577786275836e-20  0.
7.823070509403223e-27 1.2419563337778773e-20  0.
1.9565976757481e-28 1.2419570070987256e-20  0.
-1.20487287409287e-27 1.241956946092049e-20  0.
-7.714396449107051e-27 1.2419564765518915e-20  0.
-3.8789815602861793e-26 1.2419541290777798e-20  0.
-1.563245017116334e-24 1.2417983911254547e-20  0.
-1.0146359345193804e-23 1.2415050356078384e-20  0.
-1.3864736154459794e-23 1.2420730504384112e-20  0.
-1.5293866894742558e-23 1.2415860078659809e-20  0.
-3.1175096187639394e-23 1.2408310976720628e-20  0.
-9.147226472544862e-23 1.2380497365924917e-20  0.
-4.502482764638147e-22 1.2163667938402405e-20  0.
-7.445637329014349e-22 1.0141868954573203e-20  0.
-5.236045504828705e-22 9.237198329938909e-21  0.
-7.980647970083669e-22 8.444089475095285e-21  0.
-1.235490465425348e-21 6.2864641870493575e-21  0.
-1.060575726411722e-21 4.192631550681469e-21  0.
-2.6197135923935218e-21 4.37937611889309e-21  0.
0.0 5.836322934730177e-19  0.
-1.7068506694435066e-24 5.83529478560055e-19  0.
9.122959171381967e-25 5.835248282895746e-19  0.
2.1677580164828495e-26 5.835257172873474e-19  0.
-4.007631445204786e-27 5.835257573216075e-19  0.
-5.42992690380365e-26 5.835257049177267e-19  0.
-9.656363388047426e-25 5.835248536219571e-19  0.
-5.4619986275366026e-24 5.835229153375722e-19  0.
-1.6970536519980492e-23 5.835131430809724e-19  0.
-4.631030669767429e-22 5.831620864977314e-19  0.
-7.333140425971217e-22 5.806923609875217e-19  0.
-1.3264776375311193e-21 5.784477308912913e-19  0.
-3.216228808050232e-21 5.739924728966323e-19  0.
-5.167281356931776e-21 5.666242334761688e-19  0.
-1.0261841231819333e-20 5.512379134805437e-19  0.
-1.7117611149285022e-20 5.290285888929278e-19  0.
-2.160597378381085e-20 4.875706442001433e-19  0.
-3.0596460023695165e-20 4.416601324671448e-19  0.
-4.045260661629605e-20 3.749515696565293e-19  0.
-4.993476537168137e-20 2.9231302847327044e-19  0.
-1.541139379369503e-19 2.9881683546544557e-19  0.
0.0 1.5381512495445606e-17  0.
-7.520683395547639e-23 1.538132398565862e-17  0.
-1.4466520955992422e-24 1.5381249390567378e-17  0.
-3.857698507756289e-25 1.53812502879414e-17  0.
-7.604601436298351e-26 1.538124987536526e-17  0.
-1.2167719516725107e-24 1.5381248813710514e-17  0.
-2.5405426093636953e-23 1.538122616764605e-17  0.
-4.08664701146194e-22 1.5380949995632436e-17  0.
-1.200426934406311e-21 1.5379386856653073e-17  0.
-5.32424346617868e-21 1.537432192683207e-17  0.
-1.51819342242469e-20 1.535818273247548e-17  0.
-3.4519681233565216e-20 1.5311317283639618e-17  0.
-7.499100814601745e-20 1.5211410875326966e-17  0.
-1.4090136193026811e-19 1.5011631340128522e-17  0.
-2.397939471908127e-19 1.4664192437947583e-17  0.
-3.9207930998011654e-19 1.408028796520269e-17  0.
-5.880240697168839e-19 1.3181809188965957e-17  0.
-8.213392152845357e-19 1.1868441954997918e-17  0.
-1.0800677990423276e-18 1.0109915827918453e-17  0.
-1.3875117644337007e-18 7.969050784008457e-18  0.
-4.3138318673906205e-18 8.113326281188887e-18  0.
0.0 3.5866896346684864e-16  0.
-8.5264494722281e-22 3.586671441631616e-16  0.
-2.5972842079015595e-23 3.5866693960750327e-16  0.
3.248639355254931e-25 3.586669112422643e-16  0.
-1.8425515706742827e-24 3.5866690960611764e-16  0.
-4.0208480904213436e-23 3.5866687268174043e-16  0.
-6.853111991585213e-22 3.5866624134394037e-16  0.
-7.849227935211079e-21 3.586584510195902e-16  0.
-3.0145404945808167e-20 3.586231177249397e-16  0.
-1.0157950336655834e-19 3.58504073787432e-16  0.
-2.7544106889264694e-19 3.5816945120017777e-16  0.
-6.743805632242454e-19 3.5730754313326986e-16  0.
-1.4728869606028942e-18 3.553791239658112e-16  0.
-2.910934388689563e-18 3.5140677861704263e-16  0.
-5.262879969606248e-18 3.439647455278718e-16  0.
-8.755862100129467e-18 3.311557262287807e-16  0.
-1.3450052528748182e-17 3.1083523444255406e-16  0.
-1.9170076250301056e-17 2.8094154022324143e-16  0.
-2.5494088904463445e-17 2.400489518603662e-16  0.
-3.345038789990355e-17 1.8968189745249427e-16  0.
-1.0310216579960122e-16 1.9353564205254319e-16  0.
0.0 7.361169977201142e-15  0.
-9.944551001553555e-22 7.361166041795963e-15  0.
1.401164255567599e-23 7.3611657356571e-15  0.
-2.1815332784265662e-23 7.361165716363646e-15  0.
-2.755247735173713e-23 7.36116566906206e-15  0.
-7.9799166649021425e-22 7.36116487455803e-15  0.
-1.476811331066023e-20 7.361151280514155e-15  0.
-9.573435445935105e-20 7.361057360204249e-15  0.
-4.0566708593946634e-19 7.360629750538861e-15  0.
-1.424782717077884e-18 7.359058025887102e-15  0.
-4.2750875809033246e-18 7.354066966968664e-15  0.
-1.1129003915338667e-17 7.340479792797087e-15  0.
-2.5725264951381143e-17 7.30769670460625e-15  0.
-5.3304399495246094e-17 7.237030654669978e-15  0.
-1.0012975179713872e-16 7.0992003541450615e-15  0.
-1.7169856706497101e-16 6.8542098278493725e-15  0.
-2.705120067000976e-16 6.4545198630479974e-15  0.
-3.9334929664231823e-16 5.853254272112281e-15  0.
-5.312365507143123e-16 5.016940298239744e-15  0.
-7.072460201953602e-16 3.97685201987351e-15  0.
-2.17416350892478e-15 4.072291586855391e-15  0.
0.0 1.3182767294273416e-13  0.
-2.7127133171433805e-21 1.3182768100019285e-13  0.
-7.7054967117595425e-22 1.3182768235054096e-13  0.
2.708960639458195e-23 1.3182768054405578e-13  0.
-1.0521858619432484e-22 1.3182768034196577e-13  0.
-9.650416305929779e-21 1.3182767022737602e-13  0.
-1.11612408383328e-19 1.3182757862701929e-13  0.
-8.064266336339369e-19 1.318268664022998e-13  0.
-4.097149908538467e-18 1.3182290170440928e-13  0.
-1.6563122487076483e-17 1.3180564140067295e-13  0.
-5.492998373885606e-17 1.3174483756113702e-13  0.
-1.5577535697997272e-16 1.3156313630568402e-13  0.
-3.8405484073315935e-16 1.3109293631084995e-13  0.
-8.400358020510755e-16 1.3001853772153898e-13  0.
-1.6466163507045334e-15 1.2782316772666875e-13  0.
-2.924511301087593e-15 1.237688508270059e-13  0.
-4.736540204967646e-15 1.1694973898774395e-13  0.
-7.0417863265568875e-15 1.0643834452443773e-13  0.
-9.673443620113026e-15 9.154125699719891e-14  0.
-1.309035543205648e-14 7.281969894984562e-14  0.
-4.008392286404889e-14 7.487763789370181e-14  0.
0.0 2.0389209594092717e-12  0.
-7.662294730264177e-21 2.038920952843644e-12  0.
1.0308600875963727e-21 2.038920951203556e-12  0.
-2.5431241222447095e-23 2.0389209534248045e-12  0.
-1.2285512260110233e-21 2.038920952203018e-12  0.
-4.8151487199579577e-20 2.038920923467077e-12  0.
-5.639387677177773e-19 2.0389205239607274e-12  0.
-4.9479410049658306e-18 2.0389166569569606e-12  0.
-3.2255345136693934e-17 2.0388883272910527e-12  0.
-1.5274664186122563e-16 2.0387412286127018e-12  0.
-5.799388536641724e-16 2.0381408432278413e-12  0.
-1.8096695742885947e-15 2.036143642497155e-12  0.
-4.835016134451961e-15 2.0305089854883135e-12  0.
-1.1235349208028783e-14 2.016737105241099e-12  0.
-2.316147011992909e-14 1.987022319455936e-12  0.
-4.27635178868432e-14 1.9297227909542977e-12  0.
-7.149064885405645e-14 1.8299499635538465e-12  0.
-1.0887957897903121e-13 1.671905353136095e-12  0.
-1.5248210706666297e-13 1.4432238191285948e-12  0.
-2.1012186767411584e-13 1.1526859948679816e-12  0.
-6.39774300077262e-13 1.1911619166580972e-12  0.
0.0 2.6909525106799423e-11  0.
-3.6002316868569165e-21 2.6909525110452165e-11  0.
1.9740832083994772e-21 2.6909525110872143e-11  0.
-5.679108589897754e-22 2.6909525109169796e-11  0.
-7.38464976092116e-21 2.690952510370581e-11  0.
-1.7687886448570578e-19 2.6909524993387623e-11  0.
-2.2564624069853703e-18 2.690952358390321e-11  0.
-2.323141531755806e-17 2.690950747730277e-11  0.
-1.8518251950162642e-16 2.690936458399924e-11  0.
-1.1054221163040793e-15 2.6908406073757913e-11  0.
-4.860192898057613e-15 2.6903773519270603e-11  0.
-1.722289780770872e-14 2.6886077240925014e-11  0.
-5.0308773984770903e-14 2.6830824900712145e-11  0.
-1.2601848914962211e-13 2.668433981758266e-11  0.
-2.746184784647158e-13 2.63478143401797e-11  0.
-5.309023688635311e-13 2.566551852066138e-11  0.
-9.186463095819692e-13 2.4430018418713828e-11  0.
-1.4384601668396934e-12 2.2411959728663576e-11  0.
-2.056870201289209e-12 1.9424158676273044e-11  0.
-2.8944409977274236e-12 1.558627519108725e-11  0.
-8.738244433404603e-12 1.6203537085746336e-11  0.
0.0 2.9878564834269186e-10  0.
1.9550295000100264e-21 2.987856483506266e-10  0.
-1.5152142936008985e-22 2.9878564835348817e-10  0.
-4.298737703883086e-22 2.9878564835299264e-10  0.
-2.779408759258677e-20 2.987856483366966e-10  0.
-5.314440076504265e-19 2.987856480725282e-10  0.
-7.491532841414035e-18 2.9878564388885485e-10  0.
-8.771878579078051e-17 2.987855902588201e-10  0.
-8.190429930560421e-16 2.987850347993284e-10  0.
-5.909364220685786e-15 2.9878055549779147e-10  0.
-3.2059555906480264e-14 2.9875318470587484e-10  0.
-1.3004182938731772e-13 2.9863086243352647e-10  0.
-4.273582974973908e-13 2.981962453232025e-10  0.
-1.1616778776005445e-12 2.969300183607024e-10  0.
-2.71184432212425e-12 2.9379365062682646e-10  0.
-5.509684381090131e-12 2.8705993256754064e-10  0.
-9.93058707183786e-12 2.7430504192111057e-10  0.
-1.6015127900662706e-11 2.527442748808422e-10  0.
-2.3456807946656468e-11 2.200047965474815e-10  0.
-3.378267952895228e-11 1.7750752418965184e-10  0.
-1.0077463448113612e-10 1.8591874576496245e-10  0.
0.0 2.7441038156477505e-09  0.
-4.6037321896431775e-21 2.7441038156413766e-09  0.
2.1642452356892065e-22 2.7441038156388128e-09  0.
-1.243336183909956e-21 2.7441038156393997e-09  0.
-7.452219239086004e-20 2.744103815606437e-09  0.
-1.3723697197325012e-18 2.7441038149889966e-09  0.
-2.1316889085562777e-17 2.7441038044907735e-09  0.
-2.7633757206024506e-16 2.7441036556701655e-09  0.
-2.9197064971315808e-15 2.7441019218219157e-09  0.
-2.4486248981871883e-14 2.7440857233821986e-09  0.
-1.5845644270716827e-13 2.74396811886946e-09  0.
-7.746984876862732e-13 2.7433193788362885e-09  0.
-2.8775513603934933e-12 2.7406591077016905e-09  0.
-8.702391787397012e-12 2.731934291913094e-09  0.
-2.1857212144823243e-11 2.7083841911729185e-09  0.
-4.7209060145421187e-11 2.6542724188758237e-09  0.
-8.880944122577501e-11 2.5464525809096682e-09  0.
-1.4826984653800626e-10 2.357010084025027e-09  0.
-2.2266011176558673e-10 2.061357779736475e-09  0.
-3.295299770379548e-10 1.674296706203896e-09  0.
-9.655296442407144e-10 1.7701691899629467e-09  0.
0.0 2.042344569547059e-08  0.
-4.492041961998117e-21 2.0423445695472002e-08  0.
-8.207780187781547e-22 2.042344569547909e-08  0.
-4.9769069387466074e-21 2.042344569547388e-08  0.
-1.6437147495223562e-19 2.0423445695411624e-08  0.
-3.1734520241477234e-18 2.0423445694142693e-08  0.
-5.2968909272930046e-17 2.0423445671179424e-08  0.
-7.454556203713663e-16 2.0423445319197722e-08  0.
-8.687499492071352e-15 2.0423440815775938e-08  0.
-8.199789857289423e-14 2.0423393731141148e-08  0.
-6.112852472017865e-13 2.0423000965596034e-08  0.
-3.5101692052192303e-12 2.0420461216386615e-08  0.
-1.5310984799826738e-11 2.0407951635072128e-08  0.
-5.1607200771093743e-11 2.0361334489576312e-08  0.
-1.4226883318879207e-10 2.022155649772029e-08  0.
-3.2730168331460607e-10 1.987513634369274e-08  0.
-6.483576177230191e-10 1.9143319881500925e-08  0.
-1.1207371441626364e-09 1.7802202903280416e-08  0.
-1.7324531668237838e-09 1.5647752326479578e-08  0.
-2.640340850177241e-09 1.2816196882223282e-08  0.
-7.541754142501653e-09 1.3717162283248622e-08  0.
0.0 1.2012710402958475e-07  0.
-3.117976920055376e-21 1.201271040295788e-07  0.
2.1307980238422625e-21 1.2012710402957477e-07  0.
-1.1400538712682673e-20 1.2012710402957083e-07  0.
-3.227569315145236e-19 1.2012710402947286e-07  0.
-6.605544531400508e-18 1.20127104027151e-07  0.
-1.1665018853149677e-16 1.2012710398297862e-07  0.
-1.7547770777262006e-15 1.2012710326164358e-07  0.
-2.212126275523086e-14 1.20127093318128e-07  0.
-2.292873493978848e-13 1.2012697963733195e-07  0.
-1.9114272372782006e-12 1.2012592459606086e-07  0.
-1.2508790828158222e-11 1.201181629306693e-07  0.
-6.291465143139449e-11 1.200740556036136e-07  0.
-2.4192312124901493e-10 1.198826903018425e-07  0.
-7.315710046399057e-10 1.192426357741914e-07  0.
-1.8167007547488062e-09 1.1750979027018542e-07  0.
-3.787181705776118e-09 1.1361281067860489e-07  0.
-6.812219632914866e-09 1.061370315140398e-07  0.
-1.0827984372854375e-08 9.378862885565874e-08  0.
-1.7068049875320132e-08 7.767065922444932e-08  0.
-4.690814243978501e-08 8.449720077739243e-08  0.
0.0 5.412737094813243e-07  0.
-4.6819507762230546e-21 5.412737094813269e-07  0.
2.1722321100033494e-21 5.412737094813139e-07  0.
-2.0240785775802474e-20 5.412737094813086e-07  0.
-5.817370556461062e-19 5.41273709481145e-07  0.
-1.2435740076939599e-17 5.412737094773618e-07  0.
-2.301311087125531e-16 5.412737094021064e-07  0.
-3.653947084909125e-15 5.4127370810878e-07  0.
-4.9067313085882476e-14 5.412736891786428e-07  0.
-5.47993651486903e-13 5.41273456875486e-07  0.
-4.990363843997535e-12 5.412711111121115e-07  0.
-3.623510948930941e-11 5.412520433914619e-07  0.
-2.049673868405976e-10 5.411302273171253e-07  0.
-8.886368627646834e-10 5.405321587041601e-07  0.
-2.968884424715391e-09 5.382857922241321e-07  0.
-7.937253307321784e-09 5.316541316690631e-07  0.
-1.7492093019095533e-08 5.157167906301499e-07  0.
-3.2639184194014535e-08 4.837669320618888e-07  0.
-5.3398894345979355e-08 4.2981401539850276e-07  0.
-8.706592872420126e-08 3.6155151663315517e-07  0.
-2.259719885752425e-07 4.0230188216640507e-07  0.
0.0 1.7989850211362597e-06  0.
-4.762905792677817e-21 1.7989850211362586e-06  0.
1.9948600883802667e-21 1.7989850211362614e-06  0.
-3.499899314930605e-20 1.7989850211362544e-06  0.
-9.71433869090746e-19 1.79898502113601e-06  0.
-2.1306002761381135e-17 1.7989850211305157e-06  0.
-4.0950722043845597e-16 1.7989850210169604e-06  0.
-6.792429712176284e-15 1.7989850189828783e-06  0.
-9.595963926950345e-14 1.7989849877417966e-06  0.
-1.1372759882373446e-12 1.798984582140035e-06  0.
-1.1106718169640387e-11 1.7989802047011608e-06  0.
-8.753122972512695e-11 1.7989417161682514e-06  0.
-5.439954213360044e-10 1.7986722816724586e-06  0.
-2.6083818193416063e-09 1.7972069866649938e-06  0.
-9.554825470542754e-09 1.791130447615514e-06  0.
-2.724739640512241e-08 1.7718184758791718e-06  0.
-6.318659644587094e-08 1.7226943720108994e-06  0.
-1.215986812426836e-07 1.6207625346090546e-06  0.
-2.0407674664552732e-07 1.4478660749411162e-06  0.
-3.4295402329646515e-07 1.247571958824223e-06  0.
-8.154560372356892e-07 1.4326484599263629e-06  0.
0.0 4.246244371547751e-06  0.
-6.02510879965073e-21 4.246244371547743e-06  0.
5.320851178702252e-21 4.246244371547747e-06  0.
-5.156549052592352e-20 4.2462443715477426e-06  0.
-1.4790169893461255e-18 4.2462443715474546e-06  0.
-3.331237929180067e-17 4.246244371540352e-06  0.
-6.601651405528541e-16 4.246244371389635e-06  0.
-1.1338612404379283e-14 4.246244368597922e-06  0.
-1.6676752663067088e-13 4.24624432403979e-06  0.
-2.0712723107951117e-12 4.246243719049722e-06  0.
-2.1367043481700198e-11 4.24623683966655e-06  0.
-1.7953755034155112e-10 4.246172512429372e-06  0.
-1.2012997420154492e-09 4.245688806573044e-06  0.
-6.248786627581372e-09 4.242835781035662e-06  0.
-2.4769616428395436e-08 4.22997430735379e-06  0.
-7.478043119125595e-08 4.186307782000084e-06  0.
-1.783170821232776e-07 4.072596157510173e-06  0.
-3.516790129899254e-07 3.834095525875154e-06  0.
-5.981036399329452e-07 3.4454645974577545e-06  0.
-1.026357208688149e-06 3.090283823229867e-06  0.
-2.130597143265626e-06 3.698125491797044e-06  0.
0.0 7.087292597713451e-06  0.
-5.613570995926488e-21 7.087292597713452e-06  0.
5.432501181666809e-21 7.087292597713456e-06  0.
-7.554141222596607e-20 7.087292597713438e-06  0.
-2.068161378643667e-18 7.087292597713116e-06  0.
-4.7699776693056246e-17 7.0872925977050965e-06  0.
-9.681894412119725e-16 7.087292597530616e-06  0.
-1.7087840199114715e-14 7.087292594212716e-06  0.
-2.593140481485368e-13 7.087292539631879e-06  0.
-3.339448603530506e-12 7.087291772344173e-06  0.
-3.593241645997101e-11 7.0872826855175935e-06  0.
-3.1712370917052093e-10 7.087193609196122e-06  0.
-2.246011142368264e-09 7.086485526664837e-06  0.
-1.2449603470186114e-08 7.082036913990312e-06  0.
-5.26527206680012e-08 7.060567351511301e-06  0.
-1.6717285368116127e-07 6.983252107193662e-06  0.
-4.047659196918619e-07 6.778242592876389e-06  0.
-7.969519057288554e-07 6.367743307949842e-06  0.
-1.3643895051673413e-06 5.778997609558152e-06  0.
-2.316554862963046e-06 5.54527966899168e-06  0.
-3.984756621287333e-06 6.8884300790763595e-06  0.
0.0 9.306557626033018e-06  0.
-2.5967992364563327e-21 9.30655762603303e-06  0.
3.162118847578443e-21 9.306557626033024e-06  0.
-1.0108038850376042e-19 9.306557626033021e-06  0.
-2.676605381107766e-18 9.306557626032702e-06  0.
-6.284413570494107e-17 9.306557626024839e-06  0.
-1.298804674540914e-15 9.306557625850712e-06  0.
-2.3396566796403687e-14 9.306557622474124e-06  0.
-3.63464355023561e-13 9.306557565674254e-06  0.
-4.808800618346889e-12 9.306556746271676e-06  0.
-5.3388412316056526e-11 9.30654674847291e-06  0.
-4.886673786803883e-10 9.306445229491177e-06  0.
-3.6101708199775186e-09 9.305604638550612e-06  0.
-2.099266254221011e-08 9.300063194877437e-06  0.
-9.339525450643509e-08 9.271859640652371e-06  0.
-3.096858423319451e-07 9.16496035320046e-06  0.
-7.612626746398735e-07 8.875248230450732e-06  0.
-1.4668638304925903e-06 8.339923127069085e-06  0.
-2.492030737792386e-06 7.768234575016295e-06  0.
-3.978003800468151e-06 8.120897618915525e-06  0.
-5.601477964668831e-06 9.89537591853709e-06  0.
0.0 1.1631206531103271e-05  0.
-4.2612949583530604e-21 1.1631206531103262e-05  0.
1.0525586005023851e-22 1.1631206531103259e-05  0.
-1.2135005665125193e-19 1.1631206531103257e-05  0.
-3.2202622208410717e-18 1.1631206531102996e-05  0.
-7.641991220596146e-17 1.1631206531096647e-05  0.
-1.5993979930734195e-15 1.1631206530954239e-05  0.
-2.922553237198645e-14 1.1631206528155105e-05  0.
-4.614752126828867e-13 1.1631206480331484e-05  0.
-6.2210219561927305e-12 1.163120577807177e-05  0.
-7.058123080436178e-11 1.1631197029599385e-05  0.
-6.62526751855255e-10 1.1631106042870422e-05  0.
-5.040061225454417e-09 1.1630330714205633e-05  0.
-3.030868872578925e-08 1.162504694372047e-05  0.
-1.3990640184260726e-07 1.1597076462249927e-05  0.
-4.804967911074086e-07 1.148657082623558e-05  0.
-1.202994644568613e-06 1.1180578658635367e-05  0.
-2.268269630900665e-06 1.0662259800896498e-05  0.
-3.6831002176384157e-06 1.0393464725435624e-05  0.
-5.352453702064166e-06 1.1195079800442457e-05  0.
-6.577913563167762e-06 1.2338852875820689e-05  0.
0.0 1.409935991857781e-05  0.
-3.732768790610526e-21 1.4099359918577826e-05  0.
2.7713602841166536e-21 1.409935991857783e-05  0.
-1.295330632671697e-19 1.4099359918577826e-05  0.
-3.5949501541820746e-18 1.409935991857769e-05  0.
-8.588270094999428e-17 1.4099359918574133e-05  0.
-1.8107497374067e-15 1.4099359918493919e-05  0.
-3.3367343378139e-14 1.409935991690412e-05  0.
-5.319581856843449e-13 1.409935988948762e-05  0.
-7.250657644330233e-12 1.4099359482515927e-05  0.
-8.331800485764971e-11 1.409935434997638e-05  0.
-7.937424033945797e-10 1.409930018110617e-05  0.
-6.143312184092563e-09 1.4098830773563742e-05  0.
-3.7688171089346344e-08 1.4095564816119942e-05  0.
-1.7795251794412908e-07 1.4077854306824941e-05  0.
-6.257980044943891e-07 1.4005928180507387e-05  0.
-1.59405047252434e-06 1.3802583802922843e-05  0.
-2.9614671017465447e-06 1.3484144675276598e-05  0.
-4.425329381489687e-06 1.3507219149689016e-05  0.
-5.9937539126195595e-06 1.4060838940947481e-05  0.
-7.2293210482669396e-06 1.4227986613789425e-05  0.
0.0 1.6450000000000037e-05  0.
2.2929202141083626e-21 1.6450000000000037e-05  0.
4.913411377107389e-21 1.6450000000000037e-05  0.
-1.2810668514791017e-19 1.6450000000000037e-05  0.
-3.728116610568763e-18 1.6450000000000037e-05  0.
-8.927699471452115e-17 1.6450000000000037e-05  0.
-1.8869250359874706e-15 1.6450000000000037e-05  0.
-3.486811463120416e-14 1.6450000000000037e-05  0.
-5.576517339130326e-13 1.6450000000000037e-05  0.
-7.628626151828752e-12 1.6450000000000037e-05  0.
-8.803066909084273e-11 1.6450000000000037e-05  0.
-8.427554425795532e-10 1.6450000000000037e-05  0.
-6.559908729819177e-09 1.6450000000000037e-05  0.
-4.0513225414367653e-08 1.6450000000000037e-05  0.
-1.9276365673728544e-07 1.6450000000000037e-05  0.
-6.836624778106398e-07 1.6450000000000037e-05  0.
-1.7543533800328765e-06 1.6450000000000037e-05  0.
-3.24077536217208e-06 1.6450000000000037e-05  0.
-4.6166801148934095e-06 1.6450000000000037e-05  0.
-6.116246847774903e-06 1.6450000000000037e-05  0.
-7.535172261945093e-06 1.6450000000000037e-05  0.
</DataArray>
<DataArray type="Float64" Name="sigma_xx" NumberOfComponents="1" format="ascii" >
0.0 
0.0 
0.0 
0.0 
0.0 
0.0 
0.0 
0.0 
0.0 
0.0 
0.0 
0.0 
0.0 
0.0 
0.0 
0.0 
0.0 
0.0 
0.0 
0.0 
0.0 
1.5543122344752187e-06 
1.5543122344752187e-06 
1.5543122344752187e-06 
1.5543122344752187e-06 
1.5543122344752187e-06 
1.5543122344752187e-06 
1.5543122344752187e-06 
1.5543122344752187e-06 
1.5543122344752187e-06 
1.5543122344752187e-06 
1.5543122344752187e-06 
1.5543122344752187e-06 
1.5543122344752187e-06 
1.5543122344752187e-06 
1.5543122344752187e-06 
1.4765966227514578e-06 
1.3211653993039359e-06 
1.1712852909795397e-06 
1.0935696792557788e-06 
8.659739592076218e-07 
6.439293542825906e-07 
4.2899017671516035e-05 
4.2899017671516035e-05 
4.2899017671516035e-05 
4.2899017671516035e-05 
4.2899017671516035e-05 
4.2899017671516035e-05 
4.2899017671516035e-05 
4.2899017671516035e-05 
4.2899017671516035e-05 
4.2899017671516035e-05 
4.2899017671516035e-05 
4.274913756319164e-05 
4.2371661734819086e-05 
4.182765245275276e-05 
4.066746939201947e-05 
3.87356813291717e-05 
3.5949021537362555e-05 
3.2157609908267646e-05 
2.727262859991696e-05 
1.947331185192524e-05 
1.4466206010865783e-05 
0.001002531391236516 
0.001002531391236516 
0.001002531391236516 
0.001002531391236516 
0.001002531391236516 
0.001002531391236516 
0.001002531391236516 
0.001002531391236516 
0.0010023037955164678 
0.0010016265594714464 
0.0010000333894311093 
0.0009963696534498463 
0.000988942261415104 
0.000974731406699902 
0.0009495404462711572 
0.0009089839991816003 
0.0008476053192651987 
0.0007608191854302502 
0.0006445566302915038 
0.0004587774604658532 
0.00033918423625323136 
0.020568213798810568 
0.020568213798810568 
0.020568213798810568 
0.020568213798810568 
0.020568213798810568 
0.020568213798810568 
0.020568141634313968 
0.02056717018916742 
0.020564083769158963 
0.020554424828844724 
0.020528195809887954 
0.02046592340043673 
0.02033173629456541 
0.020067930650569103 
0.01959238882243141 
0.018801316059580124 
0.017579454558713785 
0.015820877941052906 
0.013431056267165783 
0.00956473233948429 
0.007062850304606624 
0.3681132065835867 
0.3681132065835867 
0.3681132065835867 
0.3681132065835867 
0.3681132065835867 
0.3681129845389818 
0.36811150794235903 
0.3681025761981259 
0.3680667881589271 
0.36794552960017757 
0.36759149057985485 
0.3666898673593265 
0.36464148922554773 
0.3604460063755254 
0.352619067278681 
0.33922513131834353 
0.3180690433257637 
0.2870668591725688 
0.24427517231195842 
0.17396593610108363 
0.1282474570984959 
5.688367310519025 
5.688367310519025 
5.688367310519025 
5.688367310519025 
5.688367160638917 
5.688365911638014 
5.688355525501619 
5.688287063598805 
5.68796064137622 
5.686706228136272 
5.682702747256128 
5.671701092113677 
5.6452070518187 
5.588283463753283 
5.477990167035427 
5.283325910099277 
4.968194383669909 
4.497200606357053 
3.8360732534936646 
2.731217602081059 
2.0088412044927386 
74.97755456498109 
74.9775546426967 
74.97755472041231 
74.97755472041231 
74.9775540542785 
74.97754862528791 
74.97749707208176 
74.9770958874407 
74.97474538431523 
74.9643742414818 
74.92718054891154 
74.81597994463127 
74.528980847921 
73.87896499566612 
72.56420685997075 
70.16468419607233 
66.17430814426226 
60.083024427948196 
51.375080833970785 
36.54945233411143 
26.800696534268184 
830.8910455001593 
830.8910455778748 
830.8910456555905 
830.8910456555905 
830.8910439736026 
830.8910256382694 
830.8908223675357 
830.8889889063751 
830.8761811737228 
830.8081023644661 
830.5314117662551 
829.6117745443252 
827.0515896857676 
820.8825931610428 
807.8138308803547 
783.058023093308 
740.704431076433 
674.5783734996012 
578.1703813656501 
410.6810539583614 
299.83153140844524 
7608.160963212816 
7608.160963212816 
7608.160963212816 
7608.160963140651 
7608.160959438057 
7608.1609056810585 
7608.160235716974 
7608.153428223516 
7608.09853970201 
7607.755525035341 
7606.115490765839 
7600.026713727722 
7581.425076144675 
7533.567132225746 
7426.677329025464 
7216.262803227955 
6845.21659114756 
6252.565460734825 
5370.306338497997 
3803.8900552983523 
2760.6038905003675 
56349.940040179 
56349.940040179 
56349.940040179 
56349.940039818175 
56349.94003133051 
56349.93989152013 
56349.937995864275 
56349.91677870846 
56349.72489187427 
56348.35445278428 
56340.78065228641 
56308.563050203025 
56200.43262423988 
55899.95177680827 
55192.30304594223 
53740.51504094811 
51105.79198646934 
46802.73301516934 
40261.23224429855 
28381.87183386852 
20413.344774866662 
328701.1100591596 
328701.1100591596 
328701.1100591596 
328701.11005814373 
328701.1100392145 
328701.1097157954 
328701.1050226773 
328701.0481860696 
328700.4843444795 
328695.99926856335 
328668.01176152367 
328533.1718660133 
328029.7488171101 
326522.947413979 
322766.46309423714 
314770.30030765117 
299874.7987303095 
275124.2998375674 
236760.6434035246 
165555.45013160195 
117505.03308545763 
1458905.1933923122 
1458905.1933923122 
1458905.1933923122 
1458905.1933903527 
1458905.1933526103 
1458905.192680487 
1458905.1823716941 
1458905.0492305628 
1458903.6257001194 
1458891.2737755724 
1458806.1738424776 
1458350.175703454 
1456469.757081177 
1450415.5110401534 
1434555.9881723446 
1399757.6168984359 
1333964.4368287073 
1223894.579637177 
1051074.6173218093 
724784.2940512144 
503542.63008062757 
4705727.9340774845 
4705727.9340774845 
4705727.934077563 
4705727.934074309 
4705727.934006369 
4705727.932742841 
4705727.912459161 
4705727.636379262 
4705724.499961937 
4705695.308820022 
4705477.4498705175 
4704203.048506634 
4698472.334435942 
4678736.269685969 
4625252.284346746 
4506012.145951025 
4282089.701933244 
3913056.4097008733 
3335697.151864385 
2242611.2571416707 
1500929.4141709753 
10395116.418786384 
10395116.418786384 
10395116.418786312 
10395116.418781117 
10395116.41866916 
10395116.416509489 
10395116.380529253 
10395115.86954134 
10395109.773651559 
10395049.759020198 
10394572.20978466 
10391573.431440916 
10377075.344250618 
10324084.27359297 
10176901.79811266 
9853095.22291169 
9265211.093824474 
8350246.844428038 
6969643.460877986 
4450878.464690897 
2767944.0236463216 
14846630.987800632 
14846630.98780063 
14846630.987800337 
14846630.987792615 
14846630.987622533 
14846630.984252661 
14846630.926412828 
14846630.076544393 
14846619.535704337 
14846511.031131025 
14845602.716295552 
14839567.496178793 
14808619.691177046 
14689593.0289413 
14352218.820487686 
13634944.972874276 
12423845.855583802 
10728606.14693992 
8411083.233535998 
4730849.876677814 
2410794.681225989 
14205267.850968957 
14205267.850968957 
14205267.850968668 
14205267.850958128 
14205267.8507195 
14205267.845897552 
14205267.76117066 
14205266.48259602 
14205250.135432817 
14205075.924749475 
14203558.895531025 
14193024.888582874 
14136419.93184525 
13909278.42992058 
13253196.583484307 
11913701.111417964 
9896727.522651855 
7442173.140517027 
4679141.954862622 
1635024.5061635207 
53231.2392418324 
12751880.576925218 
12751880.576925218 
12751880.576924857 
12751880.57691158 
12751880.576602306 
12751880.570250696 
12751880.45664898 
12751878.707548574 
12751855.828020826 
12751605.577222737 
12749361.004860055 
12733249.435826756 
12643526.75345404 
12271096.940537605 
11175701.855430758 
9016051.084872872 
6204437.001670834 
3394431.2135688965 
966160.3121535587 
-212288.1226456787 
-321916.1864191331 
13452034.5854179 
13452034.585417977 
13452034.585417628 
13452034.585401833 
13452034.585030101 
13452034.577309625 
13452034.437498286 
13452032.254449125 
13452003.240656186 
13451680.100310318 
13448721.558672993 
13426988.187795747 
13302872.332620151 
12774757.1027948 
11196808.994032562 
8154683.873263842 
4745139.196380585 
2348242.1021917863 
643337.9105660999 
231810.23869226268 
650586.9480875703 
13525150.124732872 
13525150.12473295 
13525150.124732528 
13525150.124714859 
13525150.124300001 
13525150.115625668 
13525149.957382776 
13525147.465979792 
13525114.041705426 
13524737.788419932 
13521250.961196013 
13495284.572811786 
13344753.203153534 
12694445.662129166 
10729926.244926434 
6981636.453141648 