<?xml version="1.0"?>
<VTKFile type="UnstructuredGrid" version="0.1" byte_order="LittleEndian" compressor="vtkZLibDataCompressor">
<UnstructuredGrid>
<Piece NumberOfPoints="441" NumberOfCells="400">
<PointData>
<DataArray type="Float64" Name="displacement" NumberOfComponents="3" format="ascii" >
0.0 7.632413785099703e-20  0.
5.995616755035495e-24 7.664780472664799e-20  0.
-1.1130711830002852e-25 7.66521590650006e-20  0.
-1.039410137185824e-27 7.665203944965929e-20  0.
-1.5022412439805247e-27 7.665203356842354e-20  0.
-1.2418081175746789e-26 7.665202894538391e-20  0.
-6.205666876403111e-26 7.665199541756123e-20  0.
-8.860219000526874e-25 7.66512709717255e-20  0.
-1.7274819150592542e-23 7.663869070722396e-20  0.
-3.5549890635516e-23 7.665211834037059e-20  0.
-3.44830937082586e-23 7.664714971721307e-20  0.
-7.932384030022044e-23 7.661742613465469e-20  0.
-3.0590452284371646e-22 7.650275091340082e-20  0.
-4.3882807990150055e-22 7.612414491085522e-20  0.
-1.4991751601594338e-21 7.555907820287183e-20  0.
-3.923684506150476e-21 7.026598889789271e-20  0.
-3.858103168804751e-21 6.087471377776348e-20  0.
-4.163958503864462e-21 5.466193198799893e-20  0.
-6.4025561382067206e-21 4.464697367100069e-20  0.
-6.743602176727741e-21 3.2079585378945246e-20  0.
-1.763342499493867e-20 3.240212308881619e-20  0.
0.0 1.273900132167561e-18  0.
-1.8798759952594834e-23 1.275144228837466e-18  0.
-2.741674011370843e-25 1.2751409766196537e-18  0.
-2.104317940860521e-25 1.2751403568401666e-18  0.
-9.824583576812178e-25 1.275140345974822e-18  0.
-9.512630491069486e-25 1.2751406663560704e-18  0.
-2.30844640929799e-24 1.2751390066771098e-18  0.
-1.4247774977798688e-23 1.2751299563512342e-18  0.
-2.9826768678117535e-22 1.2748950081422577e-18  0.
-9.417726779206563e-22 1.272637194928625e-18  0.
-1.978156860331482e-21 1.2701430806276705e-18  0.
-3.193984431989192e-21 1.266648954014493e-18  0.
-7.504638243487239e-21 1.257091474168267e-18  0.
-1.3139132323069972e-20 1.2374818092072305e-18  0.
-2.3892053684846043e-20 1.2011269123680894e-18  0.
-3.8167873661479926e-20 1.1439039877465328e-18  0.
-5.054993036131783e-20 1.0582245917599421e-18  0.
-6.840575502625344e-20 9.547374008349131e-19  0.
-8.879884857447324e-20 8.035667206448346e-19  0.
-1.107345511595079e-19 6.315120268471668e-19  0.
-3.336749450359011e-19 6.386882112227753e-19  0.
0.0 2.945499521825992e-17  0.
-4.244808662406707e-23 2.945140523059653e-17  0.
-2.2074356617674552e-23 2.9451375871977806e-17  0.
-2.671431178330376e-24 2.945136439877653e-17  0.
-1.832357381048492e-22 2.945121658473298e-17  0.
-1.9646734934491084e-23 2.9450666199696546e-17  0.
-2.21186479799486e-22 2.945052250914784e-17  0.
-1.0783444112135733e-21 2.9449188493260967e-17  0.
-4.542460688702283e-21 2.944481068161807e-17  0.
-1.5680484877760663e-20 2.942787079569273e-17  0.
-4.0208065799165907e-20 2.937533074144302e-17  0.
-8.34933265944463e-20 2.9259436331335956e-17  0.
-1.6277409793369956e-19 2.903719171008877e-17  0.
-3.0073920660132904e-19 2.861334133519857e-17  0.
-5.10292920623858e-19 2.7875242978048405e-17  0.
-7.993780737456617e-19 2.6686728527853792e-17  0.
-1.1704127703411562e-18 2.4881042897070234e-17  0.
-1.6063389334656673e-18 2.2338532221397907e-17  0.
-2.079505441670281e-18 1.8964609009683843e-17  0.
-2.6614147879306152e-18 1.4904642329459694e-17  0.
-8.099004745893514e-18 1.5170788639174674e-17  0.
0.0 6.060512879128822e-16  0.
-1.2674376090286918e-21 6.06052396412064e-16  0.
-4.346798588965129e-22 6.060501122419546e-16  0.
-1.5886705393554805e-24 6.060497224406293e-16  0.
-2.061855865119303e-22 6.060498377363744e-16  0.
-7.277643074486681e-22 6.060496839049743e-16  0.
-6.400787017770381e-21 6.060416561088858e-16  0.
-2.56199509444992e-20 6.060134522225403e-16  0.
-8.80314251023379e-20 6.059142769051717e-16  0.
-2.5513482757434096e-19 6.056129223512825e-16  0.
-6.450087750063126e-19 6.048230686353945e-16  0.
-1.4630466829047166e-18 6.029447360815798e-16  0.
-3.0012154118948557e-18 5.989508080618834e-16  0.
-5.678302055599558e-18 5.911530009416703e-16  0.
-9.866097841480757e-18 5.771665619467823e-16  0.
-1.5882372146788845e-17 5.539130719141057e-16  0.
-2.3781740457572386e-17 5.180300398631785e-16  0.
-3.3206595897725477e-17 4.663602405889578e-16  0.
-4.345813471655579e-17 3.969716935566842e-16  0.
-5.646757680675806e-17 3.1281554085744204e-16  0.
-1.7093660042786555e-16 3.1935521612858903e-16  0.
0.0 1.1046833513214147e-14  0.
-3.259278881042619e-21 1.1046829290806467e-14  0.
-4.338885092251098e-22 1.1046830395720089e-14  0.
-2.1411385439665647e-23 1.1046830602797885e-14  0.
-8.626960858379547e-22 1.1046829375981081e-14  0.
-9.57222720632975e-21 1.1046820794298191e-14  0.
-7.090860373747358e-20 1.1046759852244527e-14  0.
-3.1590405111316466e-19 1.1046435303974733e-14  0.
-1.1144454498672001e-18 1.1045214249186405e-14  0.
-3.4476186788056898e-18 1.1041306618118508e-14  0.
-9.274396894933573e-18 1.103027663577021e-14  0.
-2.2243476113613303e-17 1.1002729247808685e-14  0.
-4.7997591228830504e-17 1.0940963566543193e-14  0.
-9.414687493685067e-17 1.0815287537899422e-14  0.
-1.690362438245905e-16 1.058164774288139e-14  0.
-2.7949731959198033e-16 1.0182104747360304e-14  0.
-4.275154341115613e-16 9.550655300279664e-15  0.
-6.073849774591377e-16 8.624544914642048e-15  0.
-8.057744883565585e-16 7.361921122896343e-15  0.
-1.0611521847414107e-15 5.818167377389525e-15  0.
-3.1985976679973164e-15 5.960759581081834e-15  0.
0.0 1.7689554686281286e-13  0.
-1.5201317641371022e-21 1.7689554702771e-13  0.
-1.945028691018327e-22 1.7689554771556642e-13  0.
-4.257553489258292e-22 1.768955473317885e-13  0.
-7.30951561700319e-21 1.7689553868400485e-13  0.
-8.322025656333052e-20 1.7689547013588232e-13  0.
-5.645596441473098e-19 1.7689497069566977e-13  0.
-2.8350115353247704e-18 1.7689227884747223e-13  0.
-1.1515582410482834e-17 1.7688057677932237e-13  0.
-3.905862120147666e-17 1.768384838704371e-13  0.
-1.1399795133589882e-16 1.767091774586447e-13  0.
-2.9138169440825606e-16 1.7636286863274264e-13  0.
-6.633704650731971e-16 1.755401208644542e-13  0.
-1.3588206840985526e-15 1.7378575239591355e-13  0.
-2.529257707457193e-15 1.703944849546986e-13  0.
-4.305769612898549e-15 1.6440753987847575e-13  0.
-6.744988324888606e-15 1.5469532984107033e-13  0.
-9.764763801433507e-15 1.4014941066888489e-13  0.
-1.315034631498949e-14 1.1999480332593178e-13  0.
-1.757457539950405e-14 9.514362011701848e-14  0.
-5.268503826383241e-14 9.78840824388356e-14  0.
0.0 2.465411030521676e-12  0.
-7.056932823518394e-21 2.4654110271976612e-12  0.
-7.433837728167796e-22 2.4654110249703603e-12  0.
-2.4116625097421137e-22 2.4654110232455005e-12  0.
-3.95213083816441e-20 2.4654109998222518e-12  0.
-4.2549053578483285e-19 2.465410692846354e-12  0.
-3.340191752562521e-18 2.4654080707331384e-12  0.
-2.0465076457124135e-17 2.4653903643203205e-12  0.
-9.5996535874963e-17 2.4652999684912506e-12  0.
-3.6747655771484655e-16 2.464929150383201e-12  0.
-1.1755281928295665e-15 2.4636685060128866e-12  0.
-3.2437186001493898e-15 2.4600009791961348e-12  0.
-7.841348501244401e-15 2.4506933936916976e-12  0.
-1.6886709103323307e-14 2.429741895248913e-12  0.
-3.271080153868438e-14 2.387423742266815e-12  0.
-5.754966948078767e-14 2.3099852831074598e-12  0.
-9.252851171591144e-14 2.1806718022759754e-12  0.
-1.3678204069487976e-13 1.9824675184569322e-12  0.
-1.8724039577570498e-13 1.7029387626053386e-12  0.
-2.544198095742998e-13 1.3553187015848637e-12  0.
-7.569879074215497e-13 1.4013071796781557e-12  0.
0.0 2.958326517136312e-11  0.
-1.246995674061113e-20 2.958326517380618e-11  0.
2.581597546337739e-21 2.958326517949207e-11  0.
-5.955991668165922e-21 2.958326517571215e-11  0.
-1.5064258154159012e-19 2.95832650856009e-11  0.
-1.7091900950217119e-18 2.958326399493573e-11  0.
-1.5629770569183856e-17 2.958325304811151e-11  0.
-1.1360856747160096e-16 2.958316534527745e-11  0.
-6.409825772809816e-16 2.958261760578778e-11  0.
-2.802058823755838e-15 2.9580008830408557e-11  0.
-1.0045810716003748e-14 2.9569964609522775e-11  0.
-3.0191029158514e-14 2.953781455517965e-11  0.
-7.839410548732917e-14 2.944962202917374e-11  0.
-1.7844740917295019e-13 2.9238459993221846e-11  0.
-3.6193114896741956e-13 2.878999699424795e-11  0.
-6.600772886776891e-13 2.793568821092113e-11  0.
-1.0928100518372983e-12 2.6462221757178444e-11  0.
-1.652305444693739e-12 2.4145430861095293e-11  0.
-2.303365274576896e-12 2.0814472757126073e-11  0.
-3.1881388051543953e-12 1.6637751389858085e-11  0.
-9.390195720258514e-12 1.730611331102985e-11  0.
0.0 3.01766089904103e-10  0.
-2.3844543024995414e-21 3.0176608991827785e-10  0.
4.3730636795878166e-21 3.017660899158178e-10  0.
-2.720985441484546e-20 3.0176608990030647e-10  0.
-4.672739672013992e-19 3.0176608965662434e-10  0.
-5.804845227280292e-18 3.0176608633111726e-10  0.
-5.988893222884612e-17 3.017660489427699e-10  0.
-5.011627748950321e-16 3.017657048177031e-10  0.
-3.321573650884594e-15 3.01763184395308e-10  0.
-1.7174980055711465e-14 3.017487396339997e-10  0.
-6.957702229538527e-14 3.016848795962658e-10  0.
-2.3229150022401097e-13 3.014553974855977e-10  0.
-6.5240971628806e-13 3.007674724416756e-10  0.
-1.5857460502140303e-12 2.989973161050812e-10  0.
-3.3815114494041604e-12 2.95018890864143e-10  0.
-6.426355262894233e-12 2.870873381195595e-10  0.
-1.0979181141525007e-11 2.729085739723616e-10  0.
-1.702353614468833e-11 2.4997921381531246e-10  0.
-2.419847359517348e-11 2.163198250270403e-10  0.
-3.420710602345261e-11 1.7380634837653862e-10  0.
-9.935149333406895e-11 1.8212866708525547e-10  0.
0.0 2.577687433976773e-09  0.
1.3642563991623826e-21 2.5776874339787126e-09  0.
-1.5580597163439156e-21 2.5776874339762195e-09  0.
-7.611553532091644e-20 2.57768743393482e-09  0.
-1.2643906208862544e-18 2.577687433332303e-09  0.
-1.7028889016554515e-17 2.5776874246354268e-09  0.
-1.9366783766104146e-16 2.5776873170023716e-09  0.
-1.816493570980104e-15 2.5776862119921734e-09  0.
-1.376099485621744e-14 2.57767697754741e-09  0.
-8.256427130930617e-14 2.5776155928966257e-09  0.
-3.884135318545383e-13 2.5772952233526643e-09  0.
-1.4484194965044815e-12 2.575989724644332e-09  0.
-4.472982192978861e-12 2.571640891538038e-09  0.
-1.1666560489432256e-11 2.5595094904798843e-09  0.
-2.6377478567585372e-11 2.530410712568099e-09  0.
-5.237658665182217e-11 2.4693953815269707e-09  0.
-9.271486299082333e-11 2.355892671608654e-09  0.
-1.4759302515468312e-10 2.166657984614945e-09  0.
-2.1439724291115214e-10 1.882681524946176e-09  0.
-3.1022747772382236e-10 1.5222148907655403e-09  0.
-8.840259224657293e-10 1.6099962941911457e-09  0.
0.0 1.8109391746151316e-08  0.
-5.613887771685819e-21 1.810939174614285e-08  0.
-6.4910841352517715e-21 1.8109391746146773e-08  0.
-1.8158581692284954e-19 1.8109391746073988e-08  0.
-3.0370147707514886e-18 1.810939174478756e-08  0.
-4.391838747341435e-17 1.8109391724832846e-08  0.
-5.407364655224104e-16 1.810939145845705e-08  0.
-5.564588635768014e-15 1.8109388468109124e-08  0.
-4.6987633396715644e-14 1.8109360726010004e-08  0.
-3.1938810807233486e-13 1.8109152046830548e-08  0.
-1.7191548574808768e-12 1.8107904771929337e-08  0.
-7.296049371181429e-12 1.8102031521862672e-08  0.
-2.4843347535355042e-11 1.8080160901122633e-08  0.
-7.038887376419229e-11 1.8013194969499296e-08  0.
-1.6919799767273185e-10 1.7840738538074894e-08  0.
-3.531548514344208e-10 1.745812978640665e-08  0.
-6.483443386771497e-10 1.671524350571979e-08  0.
-1.062256660506719e-09 1.5435668318358147e-08  0.
-1.5777645735170607e-09 1.3472244736645181e-08  0.
-2.344397805343003e-09 1.0979895325606738e-08  0.
-6.50414964235328e-09 1.1752268028558159e-08  0.
0.0 1.0237815903100334e-07  0.
-5.981851807190312e-21 1.0237815903101142e-07  0.
-1.6644004378544177e-20 1.023781590310046e-07  0.
-3.766068246996615e-19 1.023781590308731e-07  0.
-6.583542178273104e-18 1.0237815902841438e-07  0.
-1.0086884537990305e-16 1.0237815898786198e-07  0.
-1.325864285539094e-15 1.0237815841196859e-07  0.
-1.4718283821857227e-14 1.0237815146126366e-07  0.
-1.3575199980079015e-13 1.023780812637337e-07  0.
-1.0218111549843597e-12 1.0237749858344471e-07  0.
-6.165959199864397e-12 1.0237359551928455e-07  0.
-2.9455911537593475e-11 1.0235285634550761e-07  0.
-1.1164620105807547e-10 1.0226574026789183e-07  0.
-3.4368522381333146e-10 1.019725251486891e-07  0.
-8.84470344760959e-10 1.0115618183692318e-07  0.
-1.9410203079907898e-09 9.92351337490921e-08  0.
-3.7058104130199438e-09 9.53323493216766e-08  0.
-6.242868374956223e-09 8.838691964176053e-08  0.
-9.492388139218202e-09 7.751043088709607e-08  0.
-1.4512571011212636e-08 6.38442752476116e-08  0.
-3.8786309467988744e-08 6.942036301544395e-08  0.
0.0 4.5341149400318183e-07  0.
-3.1892600719164654e-21 4.534114940031821e-07  0.
-2.9165089658304666e-20 4.5341149400316997e-07  0.
-7.111643106034844e-19 4.534114940029549e-07  0.
-1.2961081102168412e-17 4.5341149399870743e-07  0.
-2.08428602704894e-16 4.534114939252251e-07  0.
-2.891144411147335e-15 4.5341149282687435e-07  0.
-3.415241015263337e-14 4.5341147876088366e-07  0.
-3.385012871599094e-13 4.5341132659707413e-07  0.
-2.768402446188764e-12 4.534099584194103e-07  0.
-1.835366948670708e-11 4.5339991665569385e-07  0.
-9.705798396013408e-11 4.533408074992742e-07  0.
-4.0617595447138983e-10 4.5306553225607814e-07  0.
-1.3583072388928226e-09 4.52048669991426e-07  0.
-3.732824459238951e-09 4.4899932265427216e-07  0.
-8.616637847160406e-09 4.4139005215224643e-07  0.
-1.7062741471179126e-08 4.2525364310548695e-07  0.
-2.9507600198125635e-08 3.956765062244442e-07  0.
-4.584200751233214e-08 3.4873747710033464e-07  0.
-7.222856534821976e-08 2.9162612715186475e-07  0.
-1.8296088339447147e-07 3.239277538338411e-07  0.
0.0 1.522557501080479e-06  0.
-2.517579776840711e-21 1.522557501080477e-06  0.
-4.826626292947723e-20 1.5225575010804534e-06  0.
-1.229525563800614e-18 1.522557501080125e-06  0.
-2.332732909046803e-17 1.5225575010734737e-06  0.
-3.9003817912339874e-16 1.5225575009544893e-06  0.
-5.6562510810604525e-15 1.522557499098934e-06  0.
-7.030554592283292e-14 1.5225574741543607e-06  0.
-7.388742412332061e-13 1.5225571887874905e-06  0.
-6.463987879705823e-12 1.5225544519128716e-06  0.
-4.626496895953531e-11 1.522532819492396e-06  0.
-2.661894457662369e-10 1.5223944860317251e-06  0.
-1.2140143698253034e-09 1.5216909112254064e-06  0.
-4.379777014869447e-09 1.5188714867282714e-06  0.
-1.273051145444709e-08 1.5098809803798218e-06  0.
-3.072959613164125e-08 1.486331527317546e-06  0.
-6.264902494369516e-08 1.4347214362515178e-06  0.
-1.1057457930712536e-07 1.3383297766230647e-06  0.
-1.7467382337727616e-07 1.186006702765004e-06  0.
-2.831586199741289e-07 1.0152363599765027e-06  0.
-6.634062531915417e-07 1.161276484257338e-06  0.
0.0 3.7436628704988245e-06  0.
-6.470390624779438e-21 3.743662870498811e-06  0.
-7.951076652706291e-20 3.743662870498795e-06  0.
-1.964924982074661e-18 3.743662870498355e-06  0.
-3.846248597759074e-17 3.743662870489047e-06  0.
-6.639217689955192e-16 3.7436628703174654e-06  0.
-9.984024739322056e-15 3.7436628675469338e-06  0.
-1.2934473400645912e-13 3.7436628287957808e-06  0.
-1.4253464948848169e-12 3.743662364885751e-06  0.
-1.3165274147155766e-11 3.7436576778754085e-06  0.
-1.0023267473834867e-10 3.743618356073585e-06  0.
-6.176361673066621e-10 3.7433494582052304e-06  0.
-3.0270283085255474e-09 3.7418794179275844e-06  0.
-1.1668755772650428e-08 3.7355609084816512e-06  0.
-3.5579640088064e-08 3.7143039904459222e-06  0.
-8.82532976450677e-08 3.6572338092202993e-06  0.
-1.8337727109693772e-07 3.530441438902458e-06  0.
-3.256072179782144e-07 3.29524628879989e-06  0.
-5.19793258531441e-07 2.939212447046767e-06  0.
-8.578688932128077e-07 2.615879534683738e-06  0.
-1.7943335362034774e-06 3.111897451688859e-06  0.
0.0 6.636100151618045e-06  0.
-1.1205840316076214e-20 6.636100151618037e-06  0.
-1.172125339724083e-19 6.636100151618012e-06  0.
-2.9014221949802515e-18 6.636100151617477e-06  0.
-5.823082806287068e-17 6.636100151605903e-06  0.
-1.0316820525697563e-15 6.636100151386719e-06  0.
-1.5974884100637707e-14 6.636100147746438e-06  0.
-2.1394569200957713e-13 6.636100095170569e-06  0.
-2.4485853663548643e-12 6.6360994423808355e-06  0.
-2.361528152230605e-11 6.636092566050567e-06  0.
-1.8883841620755547e-10 6.636032071988599e-06  0.
-1.2292135723333726e-09 6.6355955687328365e-06  0.
-6.386953386336545e-09 6.633065586324212e-06  0.
-2.6036495437725436e-08 6.6215350988126105e-06  0.
-8.271889283528949e-08 6.580893745475282e-06  0.
-2.082665551180002e-07 6.469944423682143e-06  0.
-4.320970582717648e-07 6.228080366901979e-06  0.
-7.613379554660384e-07 5.799384370175619e-06  0.
-1.2121896259185204e-06 5.228005495845433e-06  0.
-1.9954366809828077e-06 4.970108330522851e-06  0.
-3.5540647404624156e-06 6.164726594609354e-06  0.
0.0 9.027745817100404e-06  0.
-8.94543969730734e-21 9.02774581710042e-06  0.
-1.6510197369393007e-19 9.027745817100407e-06  0.
-3.981818304359556e-18 9.027745817099802e-06  0.
-8.135051185003158e-17 9.027745817086983e-06  0.
-1.4711259889828716e-15 9.027745816839612e-06  0.
-2.330989615104505e-14 9.027745812638471e-06  0.
-3.2041989261552987e-13 9.027745750423483e-06  0.
-3.777316337692264e-12 9.027744955623007e-06  0.
-3.767789417087068e-11 9.027736307861355e-06  0.
-3.130292079214649e-10 9.027657358506484e-06  0.
-2.1267208739561644e-09 9.027063405188072e-06  0.
-1.157355642427557e-08 9.023457502948887e-06  0.
-4.937968290434987e-08 9.006219259539518e-06  0.
-1.624883179716039e-07 8.942932382951767e-06  0.
-4.1317284487886495e-07 8.767601968985163e-06  0.
-8.418451168189675e-07 8.399070536289393e-06  0.
-1.455755991685953e-06 7.803185681110756e-06  0.
-2.278100022184272e-06 7.212908440959493e-06  0.
-3.6160399003041844e-06 7.519924205771495e-06  0.
-5.312033760306067e-06 9.390600242834496e-06  0.
0.0 1.1193256417696495e-05  0.
-6.247720379534817e-21 1.1193256417696495e-05  0.
-2.1254934952725393e-19 1.1193256417696462e-05  0.
-5.0849087698275726e-18 1.1193256417695912e-05  0.
-1.0527634301734997e-16 1.119325641768352e-05  0.
-1.933666053693558e-15 1.1193256417440821e-05  0.
-3.117725241253947e-14 1.1193256413250205e-05  0.
-4.370724760276862e-13 1.1193256350017456e-05  0.
-5.268536937074429e-12 1.1193255524921388e-05  0.
-5.3898870361586556e-11 1.1193246327539562e-05  0.
-4.6082654616753655e-10 1.1193160022814132e-05  0.
-3.233401224218828e-09 1.1192490015065512e-05  0.
-1.8226155742312057e-08 1.1188277945433127e-05  0.
-8.05897947045572e-08 1.1167372167317816e-05  0.
-2.731177767662009e-07 1.108789901203482e-05  0.
-7.010723670970379e-07 1.0864219261889999e-05  0.
-1.396731244777073e-06 1.0412668372338525e-05  0.
-2.344154951137913e-06 9.793205481802205e-06  0.
-3.601249383397975e-06 9.476439428910889e-06  0.
-5.240281860373917e-06 1.047335151378406e-05  0.
-6.679546240478337e-06 1.2122092218812326e-05  0.
0.0 1.3733951350637542e-05  0.
-8.776464746361635e-21 1.373395135063753e-05  0.
-2.550840348657932e-19 1.373395135063752e-05  0.
-6.0470357625070254e-18 1.373395135063708e-05  0.
-1.264021281766713e-16 1.3733951350627188e-05  0.
-2.34704334033967e-15 1.373395135043193e-05  0.
-3.830626660735966e-14 1.373395134701991e-05  0.
-5.444351287847314e-13 1.3733951294846198e-05  0.
-6.665381637552457e-12 1.3733950603710325e-05  0.
-6.940054613390475e-11 1.373394276742306e-05  0.
-6.053306127569285e-10 1.3733867786443468e-05  0.
-4.3439069799008685e-09 1.3733272754515385e-05  0.
-2.510011029898972e-08 1.3729437054727575e-05  0.
-1.1388390379281911e-07 1.3709872081691682e-05  0.
-3.9490509474445966e-07 1.3633432851179477e-05  0.
-1.0245421388036014e-06 1.3414407347326562e-05  0.
-2.0069963929898762e-06 1.2987865264564301e-05  0.
-3.2346464347933624e-06 1.2535420166680912e-05  0.
-4.820527108508582e-06 1.2630554276395722e-05  0.
-6.336207956231237e-06 1.360239670830395e-05  0.
-7.697627013165277e-06 1.4203694846738764e-05  0.
0.0 1.605107534088304e-05  0.
-1.1249780714826871e-20 1.6051075340883058e-05  0.
-2.7696077871828957e-19 1.6051075340883034e-05  0.
-6.694501525005358e-18 1.6051075340882807e-05  0.
-1.4099250719703996e-16 1.605107534087732e-05  0.
-2.634626405611128e-15 1.6051075340767993e-05  0.
-4.3311067007060555e-14 1.6051075338844774e-05  0.
-6.205812589495097e-13 1.6051075309207593e-05  0.
-7.667589697244778e-12 1.605107491317421e-05  0.
-8.066916770259477e-11 1.6051070377708496e-05  0.
-7.119554562586342e-10 1.605102648880058e-05  0.
-5.177361125589566e-09 1.6050673605196494e-05  0.
-3.0360196197172295e-08 1.604836519103989e-05  0.
-1.3992316842140014e-07 1.6036390697222262e-05  0.
-4.924551273990752e-07 1.598875453706479e-05  0.
-1.2895071882504176e-06 1.5850469040945944e-05  0.
-2.5052993770948056e-06 1.55868220911393e-05  0.
-3.8683755865974075e-06 1.5377074400678708e-05  0.
-5.435314490891938e-06 1.5648065685657366e-05  0.
-6.970488981617623e-06 1.6021813102722767e-05  0.
-8.178854680391471e-06 1.59543870456046e-05  0.
0.0 1.8450000000000018e-05  0.
-1.0852564635937011e-20 1.8450000000000018e-05  0.
-2.853804832410471e-19 1.8450000000000018e-05  0.
-6.923518787302507e-18 1.8450000000000018e-05  0.
-1.461917332455733e-16 1.8450000000000018e-05  0.
-2.7378749465785043e-15 1.8450000000000018e-05  0.
-4.5115659145549046e-14 1.8450000000000018e-05  0.
-6.481757379110873e-13 1.8450000000000018e-05  0.
-8.0328316149107e-12 1.8450000000000018e-05  0.
-8.480258056662937e-11 1.8450000000000018e-05  0.
-7.513526848026062e-10 1.8450000000000018e-05  0.
-5.487957409920988e-09 1.8450000000000018e-05  0.
-3.233938778017073e-08 1.8450000000000018e-05  0.
-1.4983348163653495e-07 1.8450000000000018e-05  0.
-5.300899059945451e-07 1.8450000000000018e-05  0.
-1.3932783175822266e-06 1.8450000000000018e-05  0.
-2.7015568728599057e-06 1.8450000000000018e-05  0.
-4.089269079114203e-06 1.8450000000000018e-05  0.
-5.535121121100715e-06 1.8450000000000018e-05  0.
-7.237334155472608e-06 1.8450000000000018e-05  0.
-8.24140908735272e-06 1.8450000000000018e-05  0.
</DataArray>
<DataArray type="Float64" Name="sigma_xx" NumberOfComponents="1" format="ascii" >
6.838973831690962e-06 
6.838973831690962e-06 
6.838973831690962e-06 
6.838973831690962e-06 
6.838973831690962e-06 
6.838973831690962e-06 
6.838973831690962e-06 
6.838973831690962e-06 
6.838973831690962e-06 
6.838973831690962e-06 
6.683542608243441e-06 
6.528111384795919e-06 
6.528111384795919e-06 
6.528111384795919e-06 
6.383782391594648e-06 
6.072919944699605e-06 
5.595524044110787e-06 
4.9737991503207e-06 
4.207745263329342e-06 
3.008704396734173e-06 
2.2648549702353185e-06 
8.237854842718659e-05 
8.237854842718659e-05 
8.237854842718659e-05 
8.237854842718659e-05 
8.237854842718659e-05 
8.237854842718659e-05 
8.237854842718659e-05 
8.237854842718659e-05 
8.237854842718659e-05 
8.215095270713843e-05 
8.184009026024339e-05 
8.145706331674771e-05 
8.061329381803259e-05 
7.914779942552738e-05 
7.676637103770642e-05 
7.313594174718216e-05 
6.77846667684889e-05 
6.049050149670163e-05 
5.117573032009658e-05 
3.632094625061198e-05 
2.6667557051496247e-05 
0.0016935786106841981 
0.0016935786106841981 
0.0016935786106841981 
0.0016935786106841981 
0.0016935786106841981 
0.0016935786106841981 
0.0016935786106841981 
0.00169335101496415 
0.0016925960633074049 
0.001690925177655344 
0.0016873447084009279 
0.0016799284185964318 
0.001664746118734683 
0.0016373680189474267 
0.0015916379325631165 
0.0015190737556736163 
0.0014117429447679792 
0.0012627177081725445 
0.0010660083926694592 
0.000755695506171605 
0.000556388268790897 
0.030848901211300007 
0.030848901211300003 
0.030848901211300003 
0.030848901211300003 
0.030848901211300003 
0.03084875133119168 
0.03084815181075838 
0.030845442866578296 
0.03083729938069267 
0.0308161829387643 
0.030763452896209728 
0.030645297410813996 
0.030404034845332703 
0.029951441327114012 
0.02916676344888457 
0.027900298738003915 
0.02599412352033425 
0.02330741710743211 
0.019712337318011912 
0.01397637006128604 
0.010281175910620272 
0.4936105524322441 
0.49361055243224405 
0.49361055243224405 
0.49361055243224405 
0.49361048026774745 
0.4936092978802262 
0.4936032638180874 
0.4935781283688099 
0.4934920361243653 
0.49323616302387996 
0.4925628349639053 
0.49097790832952604 
0.48760563364780274 
0.4810539244726184 
0.4693518684817375 
0.4500208483637634 
0.42035227520997853 
0.3778632240436507 
0.3202342280239633 
0.22699486179611472 
0.16665402391424766 
6.872219637799047 
6.872219637799047 
6.872219637799047 
6.87221956563455 
6.872218683007246 
6.87221144990424 
6.8721677348726455 
6.871962382470896 
6.871169377919982 
6.868587476560604 
6.861294260529503 
6.843126854061408 
6.802596058674835 
6.720774470281297 
6.569924893007338 
6.3142387818349 
5.913500428222916 
5.329797853059757 
4.526323754694415 
3.2063745714072653 
2.347976790773031 
82.3378371039851 
82.3378371039851 
82.3378371039851 
82.337836665447 
82.3378324799062 
82.33779770772107 
82.33755134368079 
82.3361827217983 
82.33019999637212 
82.30856892166291 
82.24238315368557 
82.06627262197227 
81.65241224267203 
80.78044089754319 
79.11694033246872 
76.21763586929117 
71.57113497413545 
64.6804991344396 
55.04319852134285 
38.945928723665965 
28.42118333457043 
838.0421104625665 
838.0421104625665 
838.0421104625665 
838.0421091525034 
838.0420951192843 
838.0419571074601 
838.0408389685454 
838.0336310287448 
837.9970182104121 
837.8489231686267 
837.3507480285978 
835.9263035939698 
832.3750844807519 
824.5412226159929 
809.027810841356 
781.1850221500769 
735.501972540242 
666.4812919665584 
568.2924589994752 
401.30715063257924 
291.5170579931291 
7134.706383360443 
7134.706383360443 
7134.706383365994 
7134.706380029773 
7134.706337669214 
7134.705873435008 
7134.701672811825 
7134.670942182672 
7134.492037053072 
7133.666721770291 
7130.600792232264 
7121.074771343492 
7095.7931611825825 
7037.12219054242 
6916.359882164212 
6692.850115214142 
6317.371479749865 
5739.30527063282 
4902.186142502484 
3450.8769940683183 
2490.8291243352915 
49862.04179555641 
49862.0417954787 
49862.0417950457 
49862.04178699103 
49862.04167326534 
49862.040320569606 
49862.02691310003 
49861.91799608574 
49861.20517030955 
49857.492713240004 
49842.08269424582 
49789.986046946935 
49641.83217502359 
49279.97640977176 
48504.607745850066 
47026.49044369398 
44486.39393364594 
40507.44385478143 
34640.96498798362 
24264.083308106467 
17358.5933788356 
279461.8793571012 
279461.8793570235 
279461.8793557856 
279461.8793372116 
279461.8790641689 
279461.87559348403 
279461.83849036903 
279461.5098404617 
279459.1384539468 
279445.41382780287 
279382.2217009966 
279148.8796132501 
278439.3317970034 
276614.0191975185 
272556.5516168842 
264613.03534173744 
250715.12180082902 
228649.4719268838 
195575.1954265255 
135907.5158938488 
95962.7650883254 
1219210.7980764974 
1219210.7980764974 
1219210.7980742492 
1219210.798036052 
1219210.7974442807 
1219210.789502145 
1219210.6991034898 
1219209.8389933843 
1219203.110121558 
1219160.5482138349 
1218945.8287602814 
1218084.710432393 
1215296.9899719032 
1207790.9150472186 
1190599.3093380942 
1156349.2804568694 
1095929.385206148 
999613.314769279 
853515.1700187812 
585507.1335563703 
405241.28001401795 
3980047.7909811996 
3980047.7909811274 
3980047.790977147 
3980047.790905476 
3980047.7897411967 
3980047.773386251 
3980047.5772951134 
3980045.5979318293 
3980029.043695145 
3979916.3086125236 
3979301.5853875834 
3976648.2193862544 
3967558.0174226053 
3942261.373339147 
3883284.0367046082 
3765757.447444966 
3560504.6734315953 
3238236.6810229067 
2748965.082854409 
1844629.6267801384 
1235658.233581232 
9229717.724477913 
9229717.724477697 
9229717.724471046 
9229717.72434665 
9229717.722256493 
9229717.691765701 
9229717.310132649 
9229713.265864749 
9229677.537100742 
9229418.974885505 
9227914.69310616 
9220998.550111324 
9196091.694877442 
9125128.15531249 
8960162.35412335 
8638436.680510065 
8099883.629054381 
7293906.595153074 
6098954.308515209 
3926693.818645084 
2473506.6903918227 
14355158.02846938 
14355158.028469019 
14355158.02845891 
14355158.028260197 
14355158.024824062 
14355157.973114852 
14355157.302716738 
14355149.910792343 
14355081.630351644 
14354562.440100914 
14351376.883529013 
14335936.094602244 
14277882.593136236 
14109566.714461403 
13726022.688316219 
13014066.32250217 
11915296.278369252 
10426285.420322925 
8366258.250638634 
4915746.673099307 
2683633.8222999494 
14834873.505244745 
14834873.505244168 
14834873.505229589 
14834873.504935915 
14834873.499741316 
14834873.419558177 
14834872.349993091 
14834860.173624638 
14834743.594133705 
14833821.16436399 
14827912.834412184 
14798002.20498011 
14681351.825166788 
14338268.912635598 
13579136.833732247 
12276530.906337036 
10483404.384165239 
8413925.658715807 
5903259.933831594 
2633319.0289683808 
802965.9326713872 
12789183.879441075 
12789183.879440209 
12789183.879420292 
12789183.879017208 
12789183.871763773 
12789183.757522795 
12789182.19898083 
12789164.002779182 
12788984.80046487 
12787521.727940142 
12777826.048241453 
12726999.51042297 
12522647.207058037 
11913786.704125278 
10607533.153471086 
8584535.436943742 
6196224.735182922 
3917060.5915676113 
1662307.93541477 
4373.127356100362 
-453346.3052066779 
13208580.281234011 
13208580.281232856 
13208580.281207822 
13208580.280693594 
13208580.271312244 
13208580.121289805 
13208578.039411219 
13208553.265213912 
13208304.023605477 
13206220.37100791 
13192051.282732906 
13115760.21395626 
12801540.858361557 
11854422.694320403 
9874578.600558376 
7136853.866563516 
4531900.260378693 
2427213.2623390397 
859559.9390711023 
82119.0440366019 
-82160.59320500772 
13635000.729042087 
13635000.729040638 
13635000.729011133 
13635000.728400137 
13635000.717141343 
13635000.535156306 
13634997.979410972 
13634967.157956531 
13634652.425189955 
13631977.37862239 
13613454.995270513 
13511820.78191274 
13085833.440123204 
11789535.689150205 
9127795.316057106 
5808361.228212124 
3462528.1300882464 
1837637.5386734167 
652285.3176398745 
-204351.03830493125 
-768197.371267667 
13236083.146912776 
13236083.146911176 