<?xml version="1.0"?>
<VTKFile type="UnstructuredGrid" version="0.1" byte_order="LittleEndian" compressor="vtkZLibDataCompressor">
<UnstructuredGrid>
<Piece NumberOfPoints="441" NumberOfCells="400">
<PointData>
<DataArray type="Float64" Name="displacement" NumberOfComponents="3" format="ascii" >
0.0 1.4890486321318253e-10  0.
-4.938606204205419e-17 1.489048265986554e-10  0.
-2.0560551029026137e-16 1.4890463538338089e-10  0.
-7.363302270275649e-16 1.4890392022167738e-10  0.
-2.3766805754209185e-15 1.4890153019958732e-10  0.
-6.973093757691268e-15 1.488942816726569e-10  0.
-1.8715310737424915e-14 1.4887419796806272e-10  0.
-4.6213003100348845e-14 1.488230647393639e-10  0.
-1.0551643671718048e-13 1.4870281800189768e-10  0.
-2.2377486612603234e-13 1.4844042848788536e-10  0.
-4.425265974862274e-13 1.4790699752740354e-10  0.
-8.188399783134306e-13 1.4689306243186848e-10  0.
-1.421973561225131e-12 1.450855071115473e-10  0.
-2.3235530125010177e-12 1.420550969434922e-10  0.
-3.5806748369628842e-12 1.3726587696981615e-10  0.
-5.214093087976151e-12 1.3011648174403417e-10  0.
-7.186862191339756e-12 1.2001760562304476e-10  0.
-9.394498392966225e-12 1.0650165998919553e-10  0.
-1.1712914407688144e-11 8.941410614714915e-11  0.
-1.4840311911129366e-11 7.012482558299016e-11  0.
-3.222521049324569e-11 7.114471377379027e-11  0.
0.0 5.055761436973059e-10  0.
-1.1561744430043412e-16 5.055760696517068e-10  0.
-5.055508907505977e-16 5.055756634179062e-10  0.
-1.903114983386858e-15 5.055740498496244e-10  0.
-6.433126637244802e-15 5.05568344838889e-10  0.
-1.9682854397328717e-14 5.055501414783483e-10  0.
-5.4859186660639656e-14 5.054973636325535e-10  0.
-1.4010755448372768e-13 5.053574612094587e-10  0.
-3.296456813966262e-13 5.050164993056071e-10  0.
-7.179138019881736e-13 5.042486644392325e-10  0.
-1.4533503765516845e-12 5.026437859329485e-10  0.
-2.745061687922811e-12 4.99518215142587e-10  0.
-4.853263310292356e-12 4.938267482829109e-10  0.
-8.05472621262209e-12 4.841074606509741e-10  0.
-1.2579959959343533e-11 4.685011355054685e-10  0.
-1.8528870362751505e-11 4.4488491423552727e-10  0.
-2.578544502357639e-11 4.1114059434174373e-10  0.
-3.397681738298349e-11 3.6555682559952887e-10  0.
-4.2767422936362685e-11 3.075849172247721e-10  0.
-5.62512404592248e-11 2.4350379828257195e-10  0.
-1.400119126910993e-10 2.5651867307858894e-10  0.
0.0 2.9098266452090905e-09  0.
-4.527799863762687e-16 2.9098263806322667e-09  0.
-2.08477214411627e-15 2.9098248628925794e-09  0.
-8.26761922324419e-15 2.909818503937279e-09  0.
-2.9327334931159056e-14 2.9097948530060422e-09  0.
-9.374218871827928e-14 2.9097158053614572e-09  0.
-2.7173752298861194e-13 2.9094768150889523e-09  0.
-7.187250250985882e-13 2.9088190934465433e-09  0.
-1.7442704545745795e-12 2.9071617795889626e-09  0.
-3.90400001714451e-12 2.9033178649539212e-09  0.
-8.095047422302176e-12 2.8950724212337383e-09  0.
-1.561310763150854e-11 2.8786452436498684e-09  0.
-2.810988194789563e-11 2.848135124902748e-09  0.
-4.738941961282754e-11 2.795133774750241e-09  0.
-7.501321191551782e-11 2.708767334645849e-09  0.
-1.1175191916786916e-10 2.576421986572122e-09  0.
-1.5701250340856489e-10 2.385304084344665e-09  0.
-2.0854536228816004e-10 2.1248772907593062e-09  0.
-2.6434120186762184e-10 1.7917944548752837e-09  0.
-3.503658304288304e-10 1.42455047300705e-09  0.
-8.644630978674194e-10 1.519561381163896e-09  0.
0.0 1.4904052663467367e-08  0.
-1.5838997864884614e-15 1.4904051796845248e-08  0.
-7.656257922912346e-15 1.4904046611566497e-08  0.
-3.1897693657227214e-14 1.4904023767200998e-08  0.
-1.1847276263417113e-13 1.4903934636100334e-08  0.
-3.9490043947045536e-13 1.4903623358563735e-08  0.
-1.188710083998444e-12 1.4902644153418247e-08  0.
-3.2514253226050445e-12 1.4899852024639954e-08  0.
-8.128557149735609e-12 1.4892591903203813e-08  0.
-1.8673453637130036e-11 1.4875281033681472e-08  0.
-3.961003804718996e-11 1.4837239783287439e-08  0.
-7.791722665556355e-11 1.4759843350052202e-08  0.
-1.426840718187671e-10 1.4613466786227618e-08  0.
-2.44065481528189e-10 1.4355203408883111e-08  0.
-3.9113132126885583e-10 1.3928752867954445e-08  0.
-5.887894278375913e-10 1.326791782348649e-08  0.
-8.345043462575701e-10 1.2304630384932127e-08  0.
-1.116693430645126e-09 1.0982066204691237e-08  0.
-1.4267854278830512e-09 9.283716657087633e-09  0.
-1.9179399970118147e-09 7.43551072214995e-09  0.
-4.59956196345606e-09 8.020075139531435e-09  0.
0.0 6.593990106408107e-08  0.
-5.01345653191484e-15 6.593989850073812e-08  0.
-2.5360687155821124e-14 6.593988254947591e-08  0.
-1.1065769587673314e-13 6.593980891793459e-08  0.
-4.2916666901605527e-13 6.593950854911728e-08  0.
-1.4879896113496042e-12 6.593841587875337e-08  0.
-4.6398892910150094e-12 6.593485028397124e-08  0.
-1.3093064894891e-11 6.592434804324287e-08  0.
-3.3638110572404474e-11 6.589625285500887e-08  0.
-7.912618976333362e-11 6.582759143941676e-08  0.
-1.712958884250279e-10 6.56734718068431e-08  0.
-3.428638549401009e-10 6.535418990826597e-08  0.
-6.371646225266392e-10 6.474105215221512e-08  0.
-1.1034240993513276e-09 6.36453233557956e-08  0.
-1.7865892702085182e-09 6.181671290350984e-08  0.
-2.712447521059789e-09 5.895813935220911e-08  0.
-3.871712866686319e-09 5.4761312155593815e-08  0.
-5.213276892959235e-09 4.896759416904741e-08  0.
-6.71301662558382e-09 4.1518922880585746e-08  0.
-9.160827251461816e-09 3.358340468943902e-08  0.
-2.122681999785774e-08 3.672043196418914e-08  0.
0.0 2.486039539185933e-07  0.
-1.445525098407718e-14 2.4860394703637034e-07  0.
-7.625143873898544e-14 2.486039026313828e-07  0.
-3.4723101667314104e-13 2.4860368868813843e-07  0.
-1.4017316465082653e-12 2.486027794609865e-07  0.
-5.039738500808208e-12 2.4859934613394714e-07  0.
-1.6227571392796425e-11 2.485877667547192e-07  0.
-4.7085485373865875e-11 2.4855267246294235e-07  0.
-1.238831804086427e-10 2.484564860578456e-07  0.
-2.9731656842204414e-10 2.482166042099052e-07  0.
-6.544715218131202e-10 2.4766911660356626e-07  0.
-1.3280250574846214e-09 2.465195656586415e-07  0.
-2.4953103591112905e-09 2.442884564508138e-07  0.
-4.359306542682756e-09 2.402685139250979e-07  0.
-7.106755630556012e-09 2.3351845452124236e-07  0.
-1.084725583020772e-08 2.2291868570368488e-07  0.
-1.5549020501091786e-08 2.0730643285631748e-07  0.
-2.1021598250996938e-08 1.8571718470229971e-07  0.
-2.726318696861563e-08 1.5806783123339284e-07  0.
-3.780680446820664e-08 1.2963232424150592e-07  0.
-8.400650540466995e-08 1.4416146090734573e-07  0.
0.0 7.861692460710052e-07  0.
-3.8161287990831284e-14 7.861692292206699e-07  0.
-2.091532812364481e-13 7.861691168459766e-07  0.
-9.903817558556952e-13 7.861685539063059e-07  0.
-4.147570983357759e-12 7.861660706098551e-07  0.
-1.5412933295748794e-11 7.861563715806224e-07  0.
-5.1069448515381785e-11 7.861226911911323e-07  0.
-1.5178321515089444e-10 7.860181116846117e-07  0.
-4.072339220981248e-10 7.85725886959657e-07  0.
-9.925558617400676e-10 7.849862913169089e-07  0.
-2.2107010127672686e-09 7.832803331701333e-07  0.
-4.524171297020977e-09 7.796734806232826e-07  0.
-8.5496323722412e-09 7.726465903397976e-07  0.
-1.4987435153168128e-08 7.599711395897553e-07  0.
-2.4472833397427925e-08 7.387067331453991e-07  0.
-3.736635699939146e-08 7.053953394140815e-07  0.
-5.354907722046329e-08 6.564994811436951e-07  0.
-7.243436503577993e-08 5.892179044771154e-07  0.
-9.4505893787812e-08 5.041662282858816e-07  0.
-1.3327694416548744e-07 4.2187725229725896e-07  0.
-2.8128814023675685e-07 4.791786355904082e-07  0.
0.0 2.0466867982371264e-06  0.
-9.25744085193822e-14 2.0466867605316026e-06  0.
-5.252749854571536e-13 2.046686501420174e-06  0.
-2.5769730084261094e-12 2.046685156893681e-06  0.
-1.1157757637917494e-11 2.0466790225606453e-06  0.
-4.2716393431784914e-11 2.0466543272723527e-06  0.
-1.4513873977132432e-10 2.046566358801795e-06  0.
-4.400922043977393e-10 2.046287719936367e-06  0.
-1.1985588969071433e-09 2.0454980255350822e-06  0.
-2.951112960946753e-09 2.04348214989856e-06  0.
-6.611562083575826e-09 2.0388163307074856e-06  0.
-1.3558368705983115e-08 2.0289633001582595e-06  0.
-2.5592728822661687e-08 2.0098674334353075e-06  0.
-4.469547527857119e-08 1.9757157149324914e-06  0.
-7.256871711579815e-08 1.9190612286170927e-06  0.
-1.1004502167800775e-07 1.831458065716238e-06  0.
-1.5661359252230585e-07 1.7046788791484215e-06  0.
-2.1085014501075894e-07 1.5330783081234854e-06  0.
-2.7627622543321934e-07 1.3226637483839262e-06  0.
-3.962743765484159e-07 1.1411936272564045e-06  0.
-7.849038052006275e-07 1.3303459085863711e-06  0.
0.0 4.302107426382647e-06  0.
-2.0680638843514209e-13 4.302107349284516e-06  0.
-1.2105516552812242e-12 4.302106804963145e-06  0.
-6.1310435547608095e-12 4.302103889844255e-06  0.
-2.7354032311144374e-11 4.302090181796037e-06  0.
-1.0754075118872627e-10 4.302033489764135e-06  0.
-3.7343679962552186e-10 4.3018270500426055e-06  0.
-1.150769471969951e-09 4.301162730819444e-06  0.
-3.1665493711836585e-09 4.29926280308577e-06  0.
-7.8334887093711e-09 4.294401410110362e-06  0.
-1.7540612154922948e-08 4.283196497794412e-06  0.
-3.578554113427683e-08 4.259775404601576e-06  0.
-6.692993558110152e-08 4.215094763223823e-06  0.
-1.1543836357382509e-07 4.136820639557116e-06  0.
-1.846470893384194e-07 4.010150584909217e-06  0.
-2.754698544485203e-07 3.8196888902968835e-06  0.
-3.8579436559917085e-07 3.552375958902239e-06  0.
-5.132525749883522e-07 3.203564974059676e-06  0.
-6.738841630073568e-07 2.803343881825845e-06  0.
-9.815173953390975e-07 2.536845390865312e-06  0.
-1.797583446330668e-06 3.0475397722593284e-06  0.
0.0 7.224028924452361e-06  0.
-4.2641123753668565e-13 7.224028780297424e-06  0.
-2.5662336018710003e-12 7.224027737663558e-06  0.
-1.3371050997773264e-11 7.2240219944815e-06  0.
-6.127055943600351e-11 7.223994251648567e-06  0.
-2.466017370639724e-10 7.2238767531198664e-06  0.
-8.72427451034852e-10 7.22344075908602e-06  0.
-2.7223575402187317e-09 7.2220205902178255e-06  0.
-7.5353556022991e-09 7.217941159641298e-06  0.
-1.8628507299167196e-08 7.2075418809190954e-06  0.
-4.142550848277406e-08 7.183852144672556e-06  0.
-8.345526612366281e-08 7.1352918352739426e-06  0.
-1.5335845202551032e-07 7.045111168509547e-06  0.
-2.5876765031159254e-07 6.892400113138997e-06  0.
-4.0358064217718496e-07 6.6550711188925394e-06  0.
-5.858443788864581e-07 6.314507127511461e-06  0.
-7.986389427704281e-07 5.861688599761824e-06  0.
-1.0410429998516655e-06 5.31200333758278e-06  0.
-1.366372321277734e-06 4.769982768744211e-06  0.
-2.008929928965621e-06 4.640668684088344e-06  0.
-3.3464643007600157e-06 5.734188935930825e-06  0.
0.0 9.894440478860277e-06  0.
-8.151276727405741e-13 9.894440230980908e-06  0.
-5.027595215111308e-12 9.894438399312845e-06  0.
-2.6861554755190137e-11 9.894428055753856e-06  0.
-1.260315975515011e-10 9.894376888966224e-06  0.
-5.178097988722328e-10 9.89415560765288e-06  0.
-1.8610862428780693e-09 9.893321243820866e-06  0.
-5.862070782224501e-09 9.890578795371977e-06  0.
-1.625716625606217e-08 9.882698614236654e-06  0.
-3.99616027015946e-08 9.862795216209159e-06  0.
-8.771723079960592e-08 9.81830514010833e-06  0.
-1.7325159746457117e-07 9.729669386847678e-06  0.
-3.102646249215045e-07 9.57116848349875e-06  0.
-5.075370690741922e-07 9.315049601293314e-06  0.
-7.642385158916842e-07 8.938656737750604e-06  0.
-1.068222310933971e-06 8.43305171787918e-06  0.
-1.4033298411370445e-06 7.81427251978895e-06  0.
-1.7807411456237195e-06 7.15825835495976e-06  0.
-2.3334730876981284e-06 6.731116450188431e-06  0.
-3.4146977015150953e-06 7.202850946308868e-06  0.
-5.110716589164476e-06 8.987212898019086e-06  0.
0.0 1.197577635263817e-05  0.
-1.453085448546563e-12 1.1975775957718229e-05  0.
-9.158808817559667e-12 1.1975772983949546e-05  0.
-5.00298115810832e-11 1.1975755819879334e-05  0.
-2.3968167056108213e-10 1.1975669121381339e-05  0.
-1.0027105036001358e-09 1.1975287249523799e-05  0.
-3.65265058692726e-09 1.1973827525083021e-05  0.
-1.1584008503860972e-08 1.1968997752656347e-05  0.
-3.208337839342781e-08 1.1955159230989905e-05  0.
-7.807525122354563e-08 1.1920689027449127e-05  0.
-1.6824151860725624e-07 1.184556995264718e-05  0.
-3.2368868469841106e-07 1.1701319432151894e-05  0.
-5.608080640214754e-07 1.1455453606764371e-05  0.
-8.826718852320663e-07 1.1080674707756053e-05  0.
-1.273514535892868e-06 1.056643828614898e-05  0.
-1.703162257900585e-06 9.929277132826815e-06  0.
-2.1487171046516945e-06 9.231760640516368e-06  0.
-2.6631965912640407e-06 8.656852105144253e-06  0.
-3.493623579237761e-06 8.701207504435406e-06  0.
-4.970158236640234e-06 1.0096094168345901e-05  0.
-6.70768716983658e-06 1.2204951239565776e-05  0.
0.0 1.4239959996389236e-05  0.
-2.424071509517736e-12 1.423995941366473e-05  0.
-1.5572374729063264e-11 1.4239954952375838e-05  0.
-8.673453745064006e-11 1.4239928704208734e-05  0.
-4.2321863823554435e-10 1.4239793664632755e-05  0.
-1.798834695924511e-09 1.423918924042558e-05  0.
-6.628588847887238e-09 1.4236851418545898e-05  0.
-2.1126181080379256e-08 1.4229078590148695e-05  0.
-5.829714308739197e-08 1.4206919514102827e-05  0.
-1.3997293074384243e-07 1.4152680324180212e-05  0.
-2.947632143053485e-07 1.4038093443181571e-05  0.
-5.4950993107609e-07 1.3827581925286051e-05  0.
-9.159311017968911e-07 1.3488542926835446e-05  0.
-1.3800836673648131e-06 1.3005493006201159e-05  0.
-1.9024412408302309e-06 1.2390925238841589e-05  0.
-2.4379338003831314e-06 1.1692888330658832e-05  0.
-2.985365295228943e-06 1.1027232423545668e-05  0.
-3.687628610198422e-06 1.0711216792401367e-05  0.
-4.873870750255284e-06 1.1403672681472993e-05  0.
-6.578828139294768e-06 1.3368397272857762e-05  0.
-8.19586249951008e-06 1.5082891458852585e-05  0.
0.0 1.6863712936951954e-05  0.
-3.7880193697477225e-12 1.686371214513871e-05  0.
-2.4738699693878782e-11 1.6863705994777892e-05  0.
-1.4013100291465758e-10 1.686366919960196e-05  0.
-6.947384330407349e-10 1.686347684436644e-05  0.
-2.993739631847041e-09 1.6862603743264e-05  0.
-1.1140046307409906e-08 1.685919236558507e-05  0.
-3.5628634449413014e-08 1.6847809804921945e-05  0.
-9.779657475435639e-08 1.681556901003341e-05  0.
-2.3111358545536294e-07 1.673821636023612e-05  0.
-4.739515351076013e-07 1.658053740017336e-05  0.
-8.527649993032251e-07 1.6305253314562517e-05  0.
-1.3630252260991388e-06 1.588915394665309e-05  0.
-1.9639158304892034e-06 1.5337114748112927e-05  0.
-2.597456777035651e-06 1.468333642358463e-05  0.
-3.230092602181709e-06 1.3997718408946976e-05  0.
-3.938686246801811e-06 1.3455857726731655e-05  0.
-4.976448564714665e-06 1.3517221511240077e-05  0.
-6.5977933507730365e-06 1.4746506164959775e-05  0.
-8.363819347250899e-06 1.6490966824897898e-05  0.
-9.825674618296459e-06 1.7546145015544045e-05  0.
0.0 1.9151548937001086e-05  0.
-5.556150289573944e-12 1.9151547946523912e-05  0.
-3.679849544603653e-11 1.915154015808978e-05  0.
-2.1145574221687626e-10 1.9151492899143335e-05  0.
-1.0626678397891164e-09 1.9151242466196165e-05  0.
-4.632994758612952e-09 1.915009219083074e-05  0.
-1.7380794101619273e-08 1.914555974077484e-05  0.
-5.571565507207231e-08 1.913039998851903e-05  0.
-1.5196732775169756e-07 1.9087772914415886e-05  0.
-3.529353198740979e-07 1.8987674415815047e-05  0.
-7.030740238867733e-07 1.8791487031018122e-05  0.
-1.217704350348765e-06 1.8467845101605172e-05  0.
-1.8653795827761672e-06 1.8010453238738003e-05  0.
-2.5803352733892333e-06 1.7442527332191016e-05  0.
-3.3140279189133728e-06 1.68050397401692e-05  0.
-4.093927956084071e-06 1.6177814321168925e-05  0.
-5.097759560551765e-06 1.5832198177416104e-05  0.
-6.613642132392594e-06 1.6327312520486508e-05  0.
-8.541769372629535e-06 1.780137682215783e-05  0.
-1.0204070953363145e-05 1.895230946227192e-05  0.
-1.1477705718338951e-05 1.990323025015802e-05  0.
0.0 2.148054672063548e-05  0.
-7.666418939717152e-12 2.14805455851873e-05  0.
-5.137298001283747e-11 2.1480536565119187e-05  0.
-2.98764877263144e-10 2.148048118505621e-05  0.
-1.5185664758334506e-09 2.148018438346942e-05  0.
-6.6855315073546785e-09 2.147880762009368e-05  0.
-2.5249638524729848e-08 2.1473344968852772e-05  0.
-8.105916268196203e-08 2.1455044553839856e-05  0.
-2.1963061994227872e-07 2.1403966489396762e-05  0.
-5.011287379938822e-07 2.128657790885165e-05  0.
-9.688060252050115e-07 2.1065720399665817e-05  0.
-1.6137799030781449e-06 2.0722814689009653e-05  0.
-2.375686685705998e-06 2.026966712158329e-05  0.
-3.1861051169529178e-06 1.9733450490420333e-05  0.
-4.0446586181413215e-06 1.9147001240906996e-05  0.
-5.074474353964424e-06 1.8623160291157085e-05  0.
-6.480412398206164e-06 1.8554901141336108e-05  0.
-8.377985234385742e-06 1.942987797675998e-05  0.
-1.0218519804078395e-05 2.0707734805612563e-05  0.
-1.1605441450867137e-05 2.1366384213089256e-05  0.
-1.2901433626078733e-05 2.262527301022001e-05  0.
0.0 2.3970975770798477e-05  0.
-9.958986196482552e-12 2.3970974595425083e-05  0.
-6.737060610823618e-11 2.3970965179777392e-05  0.
-3.956181776426195e-10 2.3970906811947332e-05  0.
-2.029412005565105e-09 2.3970591089638992e-05  0.
-9.005426692216832e-09 2.3969114651831083e-05  0.
-3.419454909616097e-08 2.3963223081698575e-05  0.
-1.09875240554283e-07 2.394346222825649e-05  0.
-2.9583968511576627e-07 2.388867872356234e-05  0.
-6.638301481636458e-07 2.3765263844879085e-05  0.
-1.2467235430120779e-06 2.354211751011887e-05  0.
-2.000292382654795e-06 2.321627505569472e-05  0.
-2.8470131018740025e-06 2.281167422412737e-05  0.
-3.757056852299301e-06 2.2341722327917073e-05  0.
-4.794898355611318e-06 2.183104480709235e-05  0.
-6.135558171400477e-06 2.1470420613236084e-05  0.
-7.866654439637438e-06 2.1717064794619335e-05  0.
-9.73365689845633e-06 2.2728828592494896e-05  0.
-1.1239389747764145e-05 2.3465634698294877e-05  0.
-1.2444054918518533e-05 2.3862344993321508e-05  0.
-1.3850739472032655e-05 2.4994069196978363e-05  0.
0.0 2.626314290901947e-05  0.
-1.2193995742860743e-11 2.6263141831844994e-05  0.
-8.309398180770307e-11 2.6263133147902655e-05  0.
-4.916083058548287e-10 2.6263078921491513e-05  0.
-2.5397350091697097e-09 2.6262783534197495e-05  0.
-1.1338777157919365e-08 2.626139369093715e-05  0.
-4.3231379959733596e-08 2.625582397899248e-05  0.
-1.3898421031838956e-07 2.6237129848412106e-05  0.
-3.7217325742296494e-07 2.6185604505869716e-05  0.
-8.230503162237517e-07 2.607151527802561e-05  0.
-1.506306976224616e-06 2.5872487971727305e-05  0.
-2.3373061570219143e-06 2.559817587615229e-05  0.
-3.2430912502592655e-06 2.527514462168428e-05  0.
-4.274846067982169e-06 2.4896064317650683e-05  0.
-5.5305783763936445e-06 2.448887036955368e-05  0.
-7.1023798303744875e-06 2.4324700163179228e-05  0.
-8.891117800436256e-06 2.477442536110166e-05  0.
-1.0424096443167265e-05 2.5539607508734745e-05  0.
-1.1781251060871624e-05 2.584487882971441e-05  0.
-1.3137074894851502e-05 2.6298946753807856e-05  0.
-1.4329953780887987e-05 2.6817172253940415e-05  0.
0.0 2.870238818858376e-05  0.
-1.4084283451810043e-11 2.8702387360673445e-05  0.
-9.647309986238603e-11 2.870238065564111e-05  0.
-5.737967371358348e-10 2.870233856578407e-05  0.
-2.979280970609268e-09 2.870210812751358e-05  0.
-1.3358802801645076e-08 2.8701019071966234e-05  0.
-5.1080930216608086e-08 2.869664129547988e-05  0.
-1.6426577324329258e-07 2.868194074845185e-05  0.
-4.380282841029187e-07 2.8641599120529347e-05  0.
-9.578382644013003e-07 2.8553446878213547e-05  0.
-1.7174434820876699e-06 2.8403996018027138e-05  0.
-2.5951344986180612e-06 2.820772326138387e-05  0.
-3.5414147121498063e-06 2.7985878338744555e-05  0.
-4.706869987531321e-06 2.771868061426769e-05  0.
-6.15972191086582e-06 2.7439930782905194e-05  0.
-7.77779667803885e-06 2.7426357010107815e-05  0.
-9.426495126463118e-06 2.7857754402523657e-05  0.
-1.0824893940983915e-05 2.822824829908719e-05  0.
-1.2215433206743436e-05 2.8368396905138733e-05  0.
-1.3665934709511802e-05 2.8838458423182773e-05  0.
-1.47899366131416e-05 2.9015598303813386e-05  0.
0.0 3.105914120306874e-05  0.
-1.5352837410631795e-11 3.105914075233841e-05  0.
-1.0548785985069908e-10 3.10591370921335e-05  0.
-6.294034545473768e-10 3.105911404436451e-05  0.
-3.2778361998952135e-09 3.1058987482130144e-05  0.
-1.4735508406952467e-08 3.105838777826383e-05  0.
-5.644230650399023e-08 3.105597269992782e-05  0.
-1.815305072158332e-07 3.1047860791312506e-05  0.
-4.827883021726124e-07 3.1025659901510994e-05  0.
-1.048217276611044e-06 3.097754705527659e-05  0.
-1.8548724191258977e-06 3.089746479396135e-05  0.
-2.7552690649160167e-06 3.0795631234301204e-05  0.
-3.72663551387859e-06 3.068343418402885e-05  0.
-4.999561876161129e-06 3.054523976934625e-05  0.
-6.577190390547366e-06 3.0406231871892343e-05  0.
-8.124127828125808e-06 3.043495932454427e-05  0.
-9.654802391015628e-06 3.0678126080526316e-05  0.
-1.1167779895862602e-05 3.0824505874230094e-05  0.
-1.2518626967897707e-05 3.087552703089256e-05  0.
-1.3882315681969748e-05 3.10711552817279e-05  0.
-1.5105519622374351e-05 3.126947973791559e-05  0.
0.0 3.344999999999997e-05  0.
-1.5800021592015516e-11 3.344999999999997e-05  0.
-1.0867204426430738e-10 3.344999999999997e-05  0.
-6.490851313751723e-10 3.344999999999997e-05  0.
-3.383715358778867e-09 3.344999999999997e-05  0.
-1.5224568308491315e-08 3.344999999999997e-05  0.
-5.834899345347252e-08 3.344999999999997e-05  0.
-1.8767005959777496e-07 3.344999999999997e-05  0.
-4.986680240954723e-07 3.344999999999997e-05  0.
-1.0800604108667966e-06 3.344999999999997e-05  0.
-1.9025403724980917e-06 3.344999999999997e-05  0.
-2.8094265247586538e-06 3.344999999999997e-05  0.
-3.7895292896488054e-06 3.344999999999997e-05  0.
-5.103581158889026e-06 3.344999999999997e-05  0.
-6.72162000296372e-06 3.344999999999997e-05  0.
-8.225077927875187e-06 3.344999999999997e-05  0.
-9.725028967724577e-06 3.344999999999997e-05  0.
-1.130409468590282e-05 3.344999999999997e-05  0.
-1.260314435834688e-05 3.344999999999997e-05  0.
-1.3941449761504907e-05 3.344999999999997e-05  0.
-1.5127739631698669e-05 3.344999999999997e-05  0.
</DataArray>
<DataArray type="Float64" Name="sigma_xx" NumberOfComponents="1" format="ascii" >
1997.3589201027758 
1997.3575756893065 
1997.3510792525844 
1997.3289989705372 
1997.2617358310345 
1997.0747038189347 
1996.5968066304458 
1995.4684796985584 
1992.9947467911543 
1987.9365684150046 
1978.252701617666 
1960.834027997515 
1931.3072954441063 
1884.0123358510036 
1812.26027168857 
1708.9433633710178 
1567.4641690166518 
1382.445294056955 
1144.2137416939331 
744.2564030402107 
478.5514857830184 
7730.595304711316 
7730.591831578424 
7730.5744563938 
7730.512794190678 
7730.317016002573 
7729.751549534478 
7728.2558930913365 
7724.612493764658 
7716.396494023001 
7699.166183405821 
7665.422673322483 
7603.487403490259 
7496.596412012721 
7322.64106200475 
7055.023530463942 
6664.970835981718 
6125.258391154184 
5413.537394055587 
4494.940467297813 
3042.0993136798234 
2106.575751137373 
40316.14536940119 
40316.13221184281 
40316.06408496089 
40315.81206862532 
40314.98059889892 
40312.49609738884 
40305.72685987942 
40288.809026484116 
40249.81115975933 
40166.483688600085 
40000.70359514994 
39692.37592703344 
39154.378866185216 
38270.871165319004 
36901.50734942387 
34893.44668648196 
32100.832425385735 
28400.985299978354 
23593.411030317635 
15975.39650181611 
11074.640037816991 
176491.87855959253 
176491.83370938565 
176491.59406943334 
176490.67388349478 
176487.53278615698 
176477.86482166132 
176450.85148498823 
176381.90152982617 
176220.1918500655 
175869.82904071172 
175165.14354801163 
173843.58983011654 
171523.4742658916 
167696.82572737307 
161748.51689529087 
153009.29236103373 
140839.4073011104 
124683.21997194938 
103522.97955872888 
69577.58084609741 
47653.96136435227 
654460.3655972645 
654460.2266775832 
654459.4620593478 
654456.4223520008 
654445.7178330795 
654411.8895087406 
654315.306988698 
654064.5573384182 
653468.891745673 
652166.6440604837 
649532.5663251475 
644578.9382777202 
635878.9900764131 
621551.3171296759 
599343.10091507 
566833.4843455744 
521728.32942074514 
461951.7499548918 
383068.9470649183 
254937.39796257624 
171882.2647598816 
2017544.5178568945 
2017544.1245927066 
2017541.8993403576 
2017532.7660690239 
2017499.6854817823 
2017392.7183321388 
2017081.9105220363 
2016265.001666281 
2014310.0737262436 
2010024.078047864 
2001365.3631903678 
1985159.2972531188 
1956916.3114755475 
1910869.2659950764 
1840321.684463602 
1738319.7095157336 
1598459.8168622572 
1414555.046940535 
1170234.3517646203 
768368.116721593 
507053.5387576178 
5039889.510773941 
5039888.489481863 
5039882.561284885 
5039857.51224003 
5039764.479334137 
5039457.734654045 
5038554.445174102 
5036163.085261464 
5030433.264730737 
5017926.2466840185 
4992901.76759 
4946735.138192339 
4867763.796530668 
4741826.474193657 
4553585.124533023 
4288386.269393772 
3933718.0893027806 
3475525.403984785 
2863145.785831724 
1843763.1083935304 
1179670.7855609537 
9863318.01668616 
9863315.577800734 
9863301.08805772 
9863238.239033062 
9862999.59471467 
9862199.948486231 
9859823.383262739 
9853519.240812052 
9838493.715780541 
9806100.945851156 
9742529.609649107 
9628265.309469014 
9439041.998094127 
9148628.92475393 
8732962.374808623 
8174143.654560493 
7460590.688128291 
6568963.169838136 
5369016.066191735 
3353598.9483082513 
2043112.8637648604 
14534704.111682545 
14534698.743724884 
14534666.176044343 
14534521.57606122 
14533961.818503074 
14532061.609314507 
14526384.095014054 
14511371.376287173 
14476014.00377216 
14401363.700733332 
14259184.12225578 
14013464.215085857 
13625961.51287707 
13065239.756761491 
12316239.944192003 
11385078.372157656 
10288578.607250618 
8994306.934948139 
7226414.822302559 
4270077.446170671 
2374853.146383986 
15702399.85686282 
15702388.923091672 
15702321.32581769 
15702014.891212098 
15700808.539389951 
15696670.483648187 
15684281.796113579 
15651776.603391906 
15576606.680210693 
15422478.946524888 
15140708.033152025 
14679109.429841164 
13998740.457660984 
13093363.016110577 
12002560.03274899 
10805629.65813288 
9575897.14116057 
8238495.60900558 
6317174.059467476 
3281212.064922235 
1445683.263455642 
13336979.880151697 
13336959.156780668 
13336828.848411117 
13336227.0597118 
13333822.647783456 
13325505.096005984 
13300615.045080028 
13236055.869083261 
13090289.222965753 
12802357.15028973 
12302662.043747913 
11538431.528063888 
10507543.746374583 
9284035.587712009 
8014521.369238345 
6869794.01018217 
5922121.187972954 
4915530.372551866 
3201689.628922738 
1035807.3307060315 
4238.961029337253 
12193921.962745942 
12193885.263651796 
12193650.978214886 
12192550.956903964 
12188098.143620038 
12172588.13362563 
12126280.505185468 
12007896.485747349 
11748263.941122863 
11258160.049228862 
10460147.72646847 
9340151.54591026 
7992475.334481141 
6623423.939587828 
5484858.9245891785 
4739611.443882751 
4245776.547938288 
3366561.1266079647 
1531335.9822931085 
-1098.9175941250287 
-348238.0754682743 
13719825.345441002 
13719764.508828465 
13719370.903399639 
13717495.770812148 
13709818.700210944 
13682930.500886882 
13602949.112221286 
13401905.830304522 
12975689.182865638 
12213341.931988401 
11064139.009856077 
9614542.599784143 
8111101.540419549 
6881226.570038634 
6161946.861996358 
5872827.790933125 
5435792.264792524 
3936334.619575551 
1524945.1980470812 
36824.157679602504 
-176942.33139625378 
13786339.178331017 
13786244.594576782 
13785625.485045826 
13782638.61045897 
13770290.010861719 
13726852.391918184 
13598243.99687232 
13280886.764781866 
12633078.111185353 
11544573.970346387 
10048143.775164058 
8393340.201056698 
6980377.976176441 
6129277.760436935 
5829432.647582522 
5560539.835005441 
4409139.302869267 
1942241.740876563 
-318274.77059846115 
-746895.1219026984 
-459050.75353886094 
12956919.025356218 
12956780.817900203 
12955867.07936478 
12951410.878778927 
12932833.926184248 
12867262.748164771 
12674099.369819483 
12206399.17943507 
11289465.45984351 
9853575.503672555 
8083741.367537634 
6417232.303056123 
5307028.938373615 
4843454.16383104 
4569904.859031623 
3669997.9328064546 
1466636.2865679024 
-1149460.8402360121 
-1926174.1771145412 
-673846.3662953381 
221887.3976548491 
13526868.778905638 
13526678.719585795 
13525411.595070262 
13519175.808883462 
13492999.560216192 
13400358.371419497 
13128820.058067739 
12483383.442319736 
11268948.347062023 
9508312.602511667 
7600913.405037127 
6124251.777482761 
5374578.756958339 
5029663.563797453 
4253616.750519434 
2466774.1139696445 
-28088.36683215131 
-1425510.2547052694 
-641097.5282150919 
290464.35936062643 
368031.0745773548 
13423243.53332644 
13422997.263748545 
13421344.178386126 
13413149.127716988 
13378555.640908513 
13255877.13978532 
12897965.67031068 
12061512.321404725 
10548655.654346889 
8525322.198307203 
6640292.27850475 
5488735.568826119 
4950166.178260931 
4314777.518466378 
2829768.802949203 
630038.8120770832 
-897925.8915406738 
-790125.2818142942 
222322.90616238117 
-94297.96239319956 
-949560.9576543015 
13279200.390927933 
13278899.421989439 
13276868.510483492 
13266743.213584162 
13223817.196336348 
13071363.187943645 
12628331.508659588 
11607738.485462403 
9825577.888510466 
7621799.660897351 
5889579.333788078 
5090435.627138507 
4484661.893087771 
3249941.5015168143 
1418254.202467045 
-332947.81295227725 
-574252.7311868523 
-22903.592200326733 
-14648.44506699196 
-101130.52854728815 
-135700.77542096237 
13460863.010967411 
13460515.858614631 
13458164.526231457 
13446394.460455403 
13396342.886604112 
13218402.319416398 
12702851.703766413 
11528163.277268572 
9533308.215846403 
7227857.098220105 
5705681.643744042 
5193571.454379281 
4291144.286772735 
2413982.7221919624 
868215.4162489993 
46156.54865094717 
119879.35677565727 
385025.7435976311 
-302225.71857998986 
436.27955369558185 
833423.8789101923 
13324714.076163713 
13324335.95113884 
13321769.098023064 
13308889.244546043 
13254018.423578225 
13058830.114667512 
12494361.887450654 
11217027.88598195 
9086493.347666271 
6736377.081983796 
5390085.525619719 
5053317.544849289 
3823911.3900323776 
1496278.81961413 
543760.2357781124 