<?xml version="1.0"?>
<VTKFile type="UnstructuredGrid" version="0.1" byte_order="LittleEndian" compressor="vtkZLibDataCompressor">
<UnstructuredGrid>
<Piece NumberOfPoints="441" NumberOfCells="400">
<PointData>
<DataArray type="Float64" Name="displacement" NumberOfComponents="3" format="ascii" >
0.0 2.192058084520044e-59  0.
4.13454186054969e-59 1.9425715551003802e-59  0.
6.4153719665165805e-59 3.3858742463000705e-60  0.
1.2245010014240374e-59 -5.52788896552865e-59  0.
-3.849181904123216e-58 -3.418117098508614e-58  0.
-2.3473397502713933e-57 -1.6203506935337336e-57  0.
-1.0194581502146061e-56 -6.226118791717307e-57  0.
-3.6900993905804314e-56 -2.0478415172846604e-56  0.
-1.1426580344945878e-55 -5.688257178958657e-56  0.
-3.079649831951043e-55 -1.3681022089129229e-55  0.
-7.294870406014468e-55 -2.8470333121506275e-55  0.
-1.5300290340298407e-54 -5.1583063246611874e-55  0.
-2.857947483930735e-54 -8.12084881496878e-55  0.
-4.767845520927928e-54 -1.0978242605743782e-54  0.
-7.112253010425305e-54 -1.2465938643260701e-54  0.
-9.460936487823839e-54 -1.1022245341622868e-54  0.
-1.1141657768044357e-53 -5.777857385087939e-55  0.
-1.1412275688359895e-53 3.010058325995859e-55  0.
-9.804910911537104e-54 1.3579085880703966e-54  0.
-5.973357394702766e-54 2.031869569094921e-54  0.
-3.4412288830404897e-54 4.33728849808589e-54  0.
0.0 4.620458607356986e-56  0.
8.133707741718425e-56 3.517336194434736e-56  0.
1.383766449968193e-55 2.189022788586149e-56  0.
1.343562965555759e-55 -2.5963934982183237e-56  0.
-8.215752309684464e-56 -1.9094576812008246e-55  0.
-1.2703502551362425e-54 -9.992100665129868e-55  0.
-6.787467691710348e-54 -4.525753849872762e-54  0.
-2.784215176548803e-53 -1.6555635612145196e-53  0.
-9.693844751489104e-53 -5.261802421496696e-53  0.
-2.8999555884808235e-52 -1.406327787116581e-52  0.
-7.545926566805676e-52 -3.2438584026861746e-52  0.
-1.7219971347163077e-51 -6.4381926937047324e-52  0.
-3.4597081425959365e-51 -1.0952187781155916e-51  0.
-6.150979997304105e-51 -1.5979684070581837e-51  0.
-9.676458342585033e-51 -1.9298237712474734e-51  0.
-1.3457139590622158e-50 -1.8533926937465554e-51  0.
-1.6419141579422989e-50 -1.1089791311163712e-51  0.
-1.7282354223391353e-50 2.3531085092648877e-52  0.
-1.5142086084281559e-50 1.990035524094178e-51  0.
-9.319791076112494e-51 3.134215142910504e-51  0.
-5.391407532314787e-51 6.81898903853496e-51  0.
0.0 1.4041194656158466e-52  0.
3.027917985312591e-52 1.6253575730882417e-52  0.
5.184349915515731e-52 5.323862045879034e-53  0.
5.7696615993583946e-52 5.264605064554336e-54  0.
3.485073753216742e-52 -2.3414075493038567e-52  0.
-9.729428032282623e-52 -1.0896975303534574e-51  0.
-7.352077499897419e-51 -5.300474962931549e-51  0.
-3.5976683555248695e-50 -2.3366266825722255e-50  0.
-1.4012424960107828e-49 -8.091958116178685e-50  0.
-4.7018976232925336e-49 -2.495321764724316e-49  0.
-1.3630803435205469e-48 -6.442882202437109e-49  0.
-3.429536422978948e-48 -1.4241034325022185e-48  0.
-7.549462837987705e-48 -2.69929589905808e-48  0.
-1.4499972169561126e-47 -4.256626325505331e-48  0.
-2.4421649902729283e-47 -5.671953512721105e-48  0.
-3.5886728798078304e-47 -5.801476559840916e-48  0.
-4.580997527309275e-47 -4.1229825459008103e-48  0.
-4.989298281125074e-47 4.7805543446716446e-51  0.
-4.478427953023647e-47 5.370081659901006e-48  0.
-2.7948518989375137e-47 9.320999921488771e-48  0.
-1.6181366551639535e-47 2.0570030905579506e-47  0.
0.0 7.393604275748973e-49  0.
1.0482369256535635e-48 3.093989639502786e-49  0.
1.723910256985321e-48 3.669105474740318e-49  0.
1.9314930077736666e-48 -1.594391501857401e-49  0.
1.5742670551854658e-48 -1.980708378568569e-49  0.
1.2860058058813319e-49 -1.250337311794227e-48  0.
-6.533199478645644e-48 -5.424193488065845e-48  0.
-3.735066590677555e-47 -2.545056826248647e-47  0.
-1.7514598118784703e-46 -1.125532395575043e-46  0.
-6.524152121482646e-46 -3.6537603266024325e-46  0.
-2.116982317945583e-45 -1.1009801466753013e-45  0.
-5.962260199234113e-45 -2.7484266862693237e-45  0.
-1.448851690034574e-44 -5.786066882389214e-45  0.
-3.0680115406313432e-44 -1.0419572375122943e-44  0.
-5.590650550805884e-44 -1.482589518672363e-44  0.
-8.813299971562e-44 -1.7427140389201835e-44  0.
-1.1872138864745172e-43 -1.3163073526580894e-44  0.
-1.348486231844369e-43 -3.0811660030460004e-45  0.
-1.2475571310092402e-43 1.3975485063746872e-44  0.
-7.893315736287763e-44 2.5635298077334304e-44  0.
-4.618180130912591e-44 5.890180789294169e-44  0.
0.0 1.0146463384644542e-45  0.
3.153667078299986e-45 2.1401873832467764e-45  0.
5.2383678876211544e-45 -5.190880898531999e-47  0.
5.396477129783886e-45 2.0808686759822694e-46  0.
4.4662521303924833e-45 -1.1373982931544188e-45  0.
2.4635449510654652e-45 -8.690002416581925e-46  0.
-3.62178195882009e-45 -5.22939032068564e-45  0.
-3.2606298299167864e-44 -2.381685015792788e-44  0.
-1.6577080495356935e-43 -1.0962356501697048e-43  0.
-7.827315292308295e-43 -5.082907210641262e-43  0.
-2.8116783918754243e-42 -1.5236021709686234e-42  0.
-8.820809694604105e-42 -4.493158008732957e-42  0.
-2.4029561602639655e-41 -1.0732762402641376e-41  0.
-5.590079317573953e-41 -2.117126063368521e-41  0.
-1.125427158288816e-40 -3.551760255416494e-41  0.
-1.9135845696410777e-40 -4.3379017381330936e-41  0.
-2.758955926749201e-40 -4.114865791136471e-41  0.
-3.2892826673027772e-40 -1.2272760075593626e-41  0.
-3.1487993650677686e-40 2.856171702950864e-41  0.
-2.0345304265437093e-40 6.626441474926648e-41  0.
-1.1811281771146226e-40 1.5211770519238114e-40  0.
0.0 6.752836647859146e-42  0.
9.490047205160174e-42 2.7317939913016136e-42  0.
1.4597201594118045e-41 2.406414610834397e-42  0.
1.4673804880535532e-41 -2.3554275517827135e-42  0.
1.0408497060591313e-41 -1.8961388155848966e-42  0.
5.871809516306644e-42 -2.650737392506339e-42  0.
9.483350802817409e-43 -2.2833551872911705e-42  0.
-2.0796272566484846e-41 -1.9519396578566381e-41  0.
-1.3096686651056075e-40 -9.09184531248567e-41  0.
-6.4381071315468615e-40 -4.231606033353387e-40  0.
-3.1917625447767126e-39 -2.1288886681007927e-39  0.
-1.1079865128464991e-38 -5.77087557937939e-39  0.
-3.3179964509207333e-38 -1.6360925625283898e-38  0.
-8.612969405018702e-38 -3.6651803408546985e-38  0.
-1.891363266339147e-37 -6.645611170787779e-38  0.
-3.555539021959743e-37 -1.001882183162589e-37  0.
-5.523280543667507e-37 -9.647980825036372e-38  0.
-7.018719392985515e-37 -5.433031417526409e-38  0.
-7.027539812271297e-37 5.95507698507979e-38  0.
-4.60669485867394e-37 1.4335535020462954e-37  0.
-2.719771623695899e-37 3.5199019032141548e-37  0.
0.0 2.706949830988693e-38  0.
3.224428629509338e-38 5.023081019836843e-39  0.
4.47139557419425e-38 7.826198387129107e-39  0.
4.1773293537543687e-38 -1.1081593905823496e-38  0.
2.373324657131294e-38 -6.813409594776502e-39  0.
1.057731790986956e-38 -6.394844670406925e-39  0.
2.1960829507237732e-39 -1.9901151680600946e-39  0.
-6.775993793680015e-39 -7.02508200408862e-39  0.
-8.062320963919216e-38 -6.704841606454021e-38  0.
-4.45873198812152e-37 -2.992161382393624e-37  0.
-2.21451073463367e-36 -1.4744324351356179e-36  0.
-1.1870617042912881e-35 -8.197347709605137e-36  0.
-3.936458954370581e-35 -1.9345064866051424e-35  0.
-1.0925556887827543e-34 -5.063822788168932e-35  0.
-2.6425124051462296e-34 -1.045542159138089e-34  0.
-5.467803537823703e-34 -1.7855816216496566e-34  0.
-9.503637407952239e-34 -2.242632751219021e-34  0.
-1.3226291147057796e-33 -1.5237320707387754e-34  0.
-1.4235963277704725e-33 6.872680065536139e-35  0.
-9.612629914178791e-34 3.000225628990623e-34  0.
-5.540049566319045e-34 7.420555103673932e-34  0.
0.0 -1.6613205246148107e-35  0.
1.0647090300408427e-34 1.2100274764600593e-34  0.
1.5622605026745511e-34 -6.691034381089485e-35  0.
9.764787875176955e-35 5.209238313301396e-36  0.
5.627333370596715e-35 -4.5498658985612737e-35  0.
5.708847456697763e-36 -5.2662908831380745e-36  0.
2.3072425619531976e-37 -2.250351760244176e-37  0.
-3.624655465854608e-38 -5.995821851689997e-38  0.
-4.369741044644061e-35 -4.3793529799274113e-35  0.
-2.8929132183913543e-34 -2.0233326908586886e-34  0.
-1.3577247522468927e-33 -8.696871334256176e-34  0.
-6.746925576535063e-33 -4.5422772399381084e-33  0.
-4.319484223838606e-32 -3.190328184162713e-32  0.
-1.3313332673020437e-31 -5.824010629092717e-32  0.
-3.253364625726502e-31 -1.3445532782877163e-31  0.
-7.076606049061229e-31 -2.4847000757523362e-31  0.
-1.4223782402163186e-30 -4.622388533335377e-31  0.
-2.2732506235972545e-30 -4.081434634924947e-31  0.
-2.841188761513499e-30 -1.0594428495500522e-31  0.
-2.080670137007257e-30 6.0408400996705775e-31  0.
-1.197722202475428e-30 1.7019389228530498e-30  0.
0.0 5.7329617128489e-31  0.
3.8064063859959125e-31 -2.111319841311819e-31  0.
2.9276027720979325e-31 1.5708236719102803e-31  0.
2.4680124787533285e-31 -2.2204162972270195e-31  0.
1.0743458206650466e-32 -1.0224937224587379e-32  0.
3.262648194600003e-34 -3.2626817276589597e-34  0.
5.138212018469614e-36 -5.662834313791915e-36  0.
-2.7302854693655755e-37 -3.005547268495024e-37  0.
-1.3556305859007381e-34 -2.2197527338028076e-34  0.
-2.3216123616402267e-31 -2.308008524347476e-31  0.
-9.66140993298632e-31 -5.08599941145204e-31  0.
-3.708562329726383e-30 -2.251072501999211e-30  0.
-1.7355604909984967e-29 -1.1399337354237121e-29  0.
-1.5922055572634878e-28 -1.3367951151309117e-28  0.
-4.474438724771311e-28 -1.549747861772991e-28  0.
-9.079578908511099e-28 -2.9935484508424046e-28  0.
-1.683625282601256e-27 -4.751940968970847e-28  0.
-3.327843464590771e-27 -1.2561992473895729e-27  0.
-5.1924680624682664e-27 -4.076342788538945e-28  0.
-4.5209991574989074e-27 4.8497261577753e-28  0.
-3.559825505336574e-27 4.5129083661850925e-27  0.
0.0 -2.614198223217561e-28  0.
6.17538399683193e-28 7.791194745699643e-28  0.
6.113236586149494e-28 -6.343148317573306e-28  0.
1.4134932985755345e-29 -1.3758141487008914e-29  0.
3.188260759084943e-31 -3.3203886153019262e-31  0.
3.8669935499853515e-33 -4.5719056624999e-33  0.
-3.0934852185870066e-35 2.1001682760460447e-35  0.
-7.294947904827069e-37 -2.1610435055815884e-36  0.
-7.647328733332792e-34 -1.1221349868986327e-33  0.
-3.4815921162888418e-31 -8.242078310404821e-31  0.
-7.336203907112961e-28 -7.600677159383221e-28  0.
-2.4613058994672656e-27 -9.683542037789016e-28  0.
-8.221086610292837e-27 -4.707185601589536e-27  0.
-3.3832482440829256e-26 -2.188242253558771e-26  0.
-4.635432378496437e-25 -3.509812929405742e-25  0.
-1.1051644086305324e-24 -1.8330724582114848e-25  0.
-1.789846405445969e-24 -4.174000643350239e-25  0.
-3.0084979936698053e-24 -7.673313415619219e-25  0.
-6.5026924449675124e-24 -1.8826808595789582e-24  0.
-7.549898057103848e-24 8.372177072301635e-26  0.
-7.847567113765215e-24 7.092595777806453e-24  0.
0.0 2.988577506945152e-20  0.
9.039768790914662e-25 2.988401247375558e-20  0.
1.1034670970933925e-26 2.9884579047378393e-20  0.
1.9776606226419828e-28 2.9884591313762144e-20  0.
1.9164045244760307e-30 2.988459153084619e-20  0.
-1.8118544467949774e-32 2.9884591533449776e-20  0.
3.1578017520585998e-34 2.988459153343929e-20  0.
-3.8394995096867004e-36 2.988459153343954e-20  0.
-3.475372160883446e-33 2.988459153343421e-20  0.
-2.181107695111946e-30 2.988459153015297e-20  0.
-7.499496934234353e-28 2.988458950302736e-20  0.
-1.2505899452382435e-24 2.988354417699998e-20  0.
-3.7953291709831046e-24 2.988341527676835e-20  0.
-1.3192490868395692e-23 2.9876702559873333e-20  0.
-7.844468065806577e-23 2.978117502283918e-20  0.
-3.8261124843177626e-22 2.9206609675404747e-20  0.
-7.584261368020358e-22 2.8502462897039845e-20  0.
-1.1755815324862526e-21 2.6454905255349814e-20  0.
-2.196351670451386e-21 2.3396414675457478e-20  0.
-3.1003074614215994e-21 1.7706983766317894e-20  0.
-9.221330611096802e-21 1.7855019314469244e-20  0.
0.0 3.591147600997542e-18  0.
4.9419061079254334e-24 3.591579028758022e-18  0.
6.275739066995493e-26 3.591584460649927e-18  0.
5.185279957417541e-28 3.591584545152402e-18  0.
-7.143397933455255e-30 3.591584546113293e-18  0.
1.5672418451977079e-31 3.591584546110212e-18  0.
5.0511431012243066e-34 3.5915845461103375e-18  0.
-2.683644978405179e-35 3.591584546110338e-18  0.
-1.3009576337681673e-32 3.5915845461103174e-18  0.
-1.4194291829121027e-30 3.5915845461036645e-18  0.
-4.790043139377363e-27 3.591584538015211e-18  0.
-7.308340136998316e-25 3.591580312982753e-18  0.
-4.955562269588297e-22 3.590567102302642e-18  0.
-3.0814786563541783e-21 3.587960105232967e-18  0.
-1.1841399060458605e-20 3.573701881358066e-18  0.
-3.290203535747788e-20 3.530502789557468e-18  0.
-7.699692959615048e-20 3.42054119776117e-18  0.
-1.3873860013703212e-19 3.208691320862237e-18  0.
-2.2801695752777007e-19 2.8517025875355755e-18  0.
-3.4046884237122847e-19 2.3217523385555793e-18  0.
-1.2226795453265446e-18 2.3821410851862525e-18  0.
0.0 3.2401846950312636e-16  0.
3.838487477858494e-24 3.240192039244963e-16  0.
4.0889378817118404e-26 3.2401922024554457e-16  0.
-1.7341622591289598e-27 3.240192204225139e-16  0.
5.389528471785392e-29 3.240192204221393e-16  0.
1.6037976001255132e-31 3.2401922042218276e-16  0.
2.84695110710527e-32 3.240192204221831e-16  0.
-1.7305918234119635e-33 3.240192204221831e-16  0.
-4.98834549568477e-32 3.240192204221831e-16  0.
-3.0273865898836683e-29 3.240192204221423e-16  0.
6.91871149936664e-26 3.240192204627615e-16  0.
-8.552557076158005e-24 3.2401920739747706e-16  0.
-3.985515263857014e-21 3.240164107508918e-16  0.
-1.5410854048479302e-19 3.238635778251694e-16  0.
-6.778613632311837e-19 3.2306277565205715e-16  0.
-2.3537745538536996e-18 3.201206419958732e-16  0.
-5.725607673759338e-18 3.1226027846006884e-16  0.
-1.1824426651630773e-17 2.9513654070083027e-16  0.
-2.006307410959674e-17 2.6403581986209426e-16  0.
-3.1328428511473695e-17 2.1678569198976117e-16  0.
-1.1461308347382514e-16 2.232348015022401e-16  0.
0.0 2.3217343111928747e-14  0.
-1.851924833860865e-23 2.3217342082352986e-14  0.
-1.9401517474827672e-25 2.3217342089379995e-14  0.
1.2180883420191797e-26 2.3217342089396987e-14  0.
3.1351712268308633e-29 2.3217342089406333e-14  0.
1.4364336991433413e-29 2.3217342089406415e-14  0.
-1.5689579185711843e-31 2.321734208940643e-14  0.
-6.47452398050672e-32 2.321734208940642e-14  0.
-6.045506270704808e-31 2.3217342089406425e-14  0.
-9.96315250428832e-29 2.3217342089406267e-14  0.
-1.5693359413225239e-25 2.3217342089459913e-14  0.
3.861961296240579e-23 2.321734235940325e-14  0.
-2.0828102149963355e-20 2.3217329070022404e-14  0.
-1.0937016721671959e-18 2.321652442200351e-14  0.
-2.7799944948174576e-17 2.3189265691770906e-14  0.
-1.0896849681858327e-16 2.3058466982431493e-14  0.
-3.4546891238649896e-16 2.261997572616001e-14  0.
-7.557444397023819e-16 2.155353923460286e-14  0.
-1.4155431040229823e-15 1.9450201584048807e-14  0.
-2.2725580089063125e-15 1.6097809399191328e-14  0.
-8.558147791769146e-15 1.6671920454492515e-14  0.
0.0 1.284316326298825e-12  0.
1.8434023022157602e-23 1.2843163248425677e-12  0.
1.2988766408274477e-24 1.2843163248216311e-12  0.
-6.745832929525004e-27 1.2843163248229266e-12  0.
4.0152576061494386e-27 1.2843163248229317e-12  0.
-5.921767488498683e-29 1.2843163248229361e-12  0.
-1.1552545968817139e-29 1.2843163248229361e-12  0.
2.2765386826811296e-30 1.2843163248229363e-12  0.
-4.6278398431812927e-29 1.2843163248229361e-12  0.
-1.6146381379569016e-28 1.2843163248229355e-12  0.
-2.9461721127964877e-25 1.2843163248223547e-12  0.
-1.9947936282497172e-22 1.2843163241753856e-12  0.
-7.067585767215368e-20 1.2843162876009082e-12  0.
-4.490127391633409e-18 1.284313646731684e-12  0.
-1.8323131094962214e-16 1.2841820828887232e-12  0.
-3.879229678435525e-15 1.280387186090895e-12  0.
-1.3338058113402702e-14 1.2640629422146757e-12  0.
-3.804380931330377e-14 1.214855262250131e-12  0.
-7.374709447638275e-14 1.1076568823227537e-12  0.
-1.299997468075236e-13 9.255100985218802e-13  0.
-4.924076750889754e-13 9.634776704642425e-13  0.
0.0 5.283277814157823e-11  0.
-3.1066754384145698e-24 5.283277814527715e-11  0.
-3.1107036895845422e-24 5.2832778145310974e-11  0.
6.363406971463244e-25 5.283277814530742e-11  0.
-2.6858908530684217e-26 5.2832778145308124e-11  0.
-1.4927368398321433e-28 5.283277814530809e-11  0.
3.662923512954347e-28 5.2832778145308086e-11  0.
-3.942509870448391e-28 5.283277814530809e-11  0.
-4.990761864204514e-27 5.283277814530809e-11  0.
2.8047484716265055e-27 5.283277814530809e-11  0.
-3.1030387265106784e-25 5.2832778145306916e-11  0.
-1.038831983858237e-21 5.2832778144767904e-11  0.
-1.7876632021128104e-19 5.2832778071374185e-11  0.
-1.3148716664637396e-17 5.283277194742956e-11  0.
-6.897403859917003e-16 5.283238833761729e-11  0.
-2.3564724885807585e-14 5.281599127311045e-11  0.
-4.0272633140684543e-13 5.2423246150668336e-11  0.
-1.1919665796266757e-12 5.0929449812165356e-11  0.
-3.003142424442172e-12 4.696885654307119e-11  0.
-5.35179439483708e-12 3.967897005779168e-11  0.
-2.1409478301595482e-11 4.1697860561607673e-11  0.
0.0 1.5358207158220078e-09  0.
-4.817180955400396e-22 1.5358207158185649e-09  0.
3.405791603776057e-23 1.5358207158183746e-09  0.
-6.60577778831855e-24 1.5358207158184304e-09  0.
-6.735974989742539e-27 1.5358207158184253e-09  0.
-3.58256841559714e-27 1.5358207158184249e-09  0.
-8.421244469337412e-27 1.5358207158184249e-09  0.
-8.297996931449769e-27 1.5358207158184249e-09  0.
-1.4988326216527034e-25 1.5358207158184249e-09  0.
1.1733686119326466e-25 1.5358207158184249e-09  0.
-5.501362808546339e-25 1.5358207158184228e-09  0.
-2.442505953797353e-21 1.5358207158173636e-09  0.
-3.658430892786057e-19 1.5358207157025946e-09  0.
-2.978956119429996e-17 1.5358207049985228e-09  0.
-1.8351099401449066e-15 1.5358199265918553e-09  0.
-8.026378820259024e-14 1.5357784795895874e-09  0.
-2.2355163538706116e-12 1.5342818357379868e-09  0.
-2.956614406535052e-11 1.5055780669870372e-09  0.
-7.368252143185414e-11 1.4110228088420105e-09  0.
-1.6888376838868237e-10 1.207285845363892e-09  0.
-6.491454106921582e-10 1.274624588632772e-09  0.
0.0 2.9336499601152192e-08  0.
8.877913610551875e-22 2.933649960115806e-08  0.
-6.020492612849347e-22 2.9336499601157748e-08  0.
5.597763149370541e-24 2.9336499601157407e-08  0.
0.0 2.9336499601157394e-08  0.
2.7346938905724884e-25 2.9336499601157394e-08  0.
8.541730563261017e-26 2.933649960115739e-08  0.
-2.528961517324919e-25 2.9336499601157397e-08  0.
-1.1746885150450185e-24 2.933649960115739e-08  0.
2.1421079779263504e-25 2.9336499601157404e-08  0.
-3.068988224150596e-26 2.933649960115739e-08  0.
-4.924908747186036e-21 2.9336499601156173e-08  0.
-6.203659176595342e-19 2.9336499601014195e-08  0.
-5.464693995366011e-17 2.933649958660058e-08  0.
-3.7389543466966944e-15 2.9336498436169593e-08  0.
-1.908247274887749e-13 2.9336427419264444e-08  0.
-6.776280734148814e-12 2.9333274190530053e-08  0.
-1.4834236786970887e-10 2.9238837868595414e-08  0.
-1.4324931677350103e-09 2.786781404958234e-08  0.
-3.1277766152878064e-09 2.428070580369557e-08  0.
-1.3601363639145354e-08 2.5925105414245423e-08  0.
0.0 3.302040560347657e-07  0.
1.83400036520721e-21 3.302040560347583e-07  0.
-6.079331995795113e-22 3.302040560347594e-07  0.
4.35640319336613e-24 3.3020405603475977e-07  0.
1.9107031549851447e-25 3.3020405603475977e-07  0.
3.7736387310956617e-25 3.3020405603475977e-07  0.
-1.082160738236969e-24 3.302040560347599e-07  0.
3.356643861089207e-24 3.302040560347599e-07  0.
-3.3580896000425997e-23 3.3020405603475977e-07  0.
2.3846404542881108e-23 3.302040560347599e-07  0.
-2.291568312324577e-23 3.3020405603475977e-07  0.
-7.104983931959332e-21 3.30204056034759e-07  0.
-9.010868529486668e-19 3.302040560346207e-07  0.
-8.321378684813413e-17 3.3020405602017244e-07  0.
-6.0922879795193185e-15 3.302040547875752e-07  0.
-3.41991818998192e-13 3.302039722936199e-07  0.
-1.404299754623135e-11 3.3019972114550716e-07  0.
-3.9133512208585735e-10 3.300458436895312e-07  0.
-6.430232097310271e-09 3.263291946597622e-07  0.
-4.3921839359624824e-08 2.9123177691863013e-07  0.
-1.5708041837285933e-07 3.043432192447421e-07  0.
0.0 1.8549661727509205e-06  0.
3.630144924156269e-22 1.854966172750922e-06  0.
4.1194760021479635e-23 1.8549661727509215e-06  0.
-8.024953250937596e-24 1.8549661727509215e-06  0.
-5.120684455360181e-24 1.8549661727509215e-06  0.
-5.120684455360181e-24 1.8549661727509215e-06  0.
-5.010819023948532e-24 1.8549661727509215e-06  0.
-4.007699867581335e-24 1.8549661727509215e-06  0.
-2.288592471462329e-22 1.8549661727509217e-06  0.
1.4503192297914713e-22 1.8549661727509217e-06  0.
-1.3830624787359947e-22 1.8549661727509217e-06  0.
-8.210396545644678e-21 1.8549661727509209e-06  0.
-1.121359137609292e-18 1.8549661727508347e-06  0.
-1.0661863560001783e-16 1.8549661727415917e-06  0.
-8.110414083185752e-15 1.8549661719282541e-06  0.
-4.800817859379621e-13 1.8549661143115831e-06  0.
-2.136502897107595e-11 1.8549629596914252e-06  0.
-6.792475948513714e-10 1.854830802592871e-06  0.
-1.4375702653791501e-08 1.851164383990621e-06  0.
-1.74874285470498e-07 1.7908677921596406e-06  0.
-9.984768178459667e-07 1.8122517924550164e-06  0.
0.0 4.449999999999996e-06  0.
-2.2248227536646987e-22 4.449999999999996e-06  0.
1.8342750287857355e-24 4.449999999999996e-06  0.
0.0 4.449999999999996e-06  0.
0.0 4.449999999999996e-06  0.
0.0 4.449999999999996e-06  0.
2.1065502283711202e-24 4.449999999999996e-06  0.
-7.609375314728327e-24 4.449999999999996e-06  0.
-3.7989555478992104e-22 4.449999999999996e-06  0.
2.354893870940312e-22 4.449999999999996e-06  0.
-2.354893870940312e-22 4.449999999999996e-06  0.
-8.606633389167607e-21 4.449999999999996e-06  0.
-1.2045071590372012e-18 4.449999999999996e-06  0.
-1.1572554147950978e-16 4.449999999999996e-06  0.
-8.910509469978164e-15 4.449999999999996e-06  0.
-5.36805358545288e-13 4.449999999999996e-06  0.
-2.4497626655842265e-11 4.449999999999996e-06  0.
-8.152162345565151e-10 4.449999999999996e-06  0.
-1.859388628469612e-08 4.449999999999996e-06  0.
-2.67486069031219e-07 4.449999999999996e-06  0.
-1.7076764435274e-06 4.449999999999996e-06  0.
</DataArray>
<DataArray type="Float64" Name="sigma_xx" NumberOfComponents="1" format="ascii" >
0.0 
0.0 
0.0 
0.0 
0.0 
0.0 
0.0 
0.0 
0.0 
0.0 
0.0 
0.0 
0.0 
0.0 
0.0 
0.0 
0.0 
0.0 
0.0 
0.0 
0.0 
0.0 
0.0 
0.0 
0.0 
0.0 
0.0 
0.0 
0.0 
0.0 
0.0 
0.0 
0.0 
0.0 
0.0 
0.0 
0.0 
0.0 
0.0 
0.0 
0.0 
0.0 
0.0 
0.0 
0.0 
0.0 
0.0 
0.0 
0.0 
0.0 
0.0 
0.0 
0.0 
0.0 
0.0 
0.0 
0.0 
0.0 
0.0 
0.0 
0.0 
0.0 
0.0 
0.0 
0.0 
0.0 
0.0 
0.0 
0.0 
0.0 
0.0 
0.0 
0.0 
0.0 
0.0 
0.0 
0.0 
0.0 
0.0 
0.0 
0.0 
0.0 
0.0 
0.0 
0.0 
0.0 
0.0 
0.0 
0.0 
0.0 
0.0 
0.0 
0.0 
0.0 
0.0 
0.0 
0.0 
0.0 
0.0 
0.0 
0.0 
0.0 
0.0 
0.0 
0.0 
0.0 
0.0 
0.0 
0.0 
0.0 
0.0 
0.0 
0.0 
0.0 
0.0 
0.0 
0.0 
0.0 
0.0 
0.0 
0.0 
0.0 
0.0 
0.0 
0.0 
0.0 
0.0 
0.0 
0.0 
0.0 
0.0 
0.0 
0.0 
0.0 
0.0 
0.0 
0.0 
0.0 
0.0 
0.0 
0.0 
0.0 
0.0 
0.0 
0.0 
0.0 
0.0 
0.0 
0.0 
0.0 
0.0 
0.0 
0.0 
0.0 
0.0 
0.0 
0.0 
0.0 
0.0 
0.0 
0.0 
0.0 
0.0 
0.0 
0.0 
0.0 
0.0 
0.0 
0.0 
0.0 
0.0 
0.0 
0.0 
0.0 
0.0 
0.0 
0.0 
0.0 
0.0 
0.0 
0.0 
0.0 
0.0 
0.0 
0.0 
0.0 
0.0 
0.0 
0.0 
0.0 
0.0 
0.0 
0.0 
0.0 
0.0 
0.0 
0.0 
0.0 
0.0 
0.0 
0.0 
0.0 
0.0 
0.0 
0.0 
0.0 
0.0 
0.0 
0.0 
0.0 
1.0258460747536443e-05 
1.0258460747536443e-05 
1.0258460747536443e-05 
1.0258460747536443e-05 
1.0258460747536443e-05 
1.0258460747536443e-05 
1.0258460747536443e-05 
1.0258460747536443e-05 
1.0258460747536443e-05 
1.0258460747536443e-05 
1.0258460747536443e-05 
1.0258460747536443e-05 
1.0180745135812682e-05 
1.002531391236516e-05 
9.9475983006414e-06 
9.797718192317003e-06 
9.342526752220689e-06 
8.64308624670684e-06 
7.477352070850426e-06 
5.4622972811557685e-06 
4.218847493575593e-06 
0.0009074074824866326 
0.0009074074824866326 
0.0009074074824866326 
0.0009074074824866326 
0.0009074074824866326 
0.0009074074824866326 
0.0009074074824866326 
0.0009074074824866326 
0.0009074074824866326 
0.0009074074824866326 
0.0009074074824866326 
0.0009074074824866326 
0.0009070355577733832 
0.000905303609854968 
0.0009000855616392297 
0.0008862355294070309 
0.0008550715691058027 
0.0007974287896672647 
0.0007020495296217175 
0.0005190015084366448 
0.00039486192093818296 
0.06499822902128469 
0.06499822902128469 
0.06499822902128469 
0.06499822902128469 
0.06499822902128469 
0.06499822902128469 
0.06499822902128469 
0.06499822902128469 
0.06499822902128469 
0.06499822902128469 
0.06499822902128469 
0.06499830673689641 
0.06499596416631445 
0.06493937609874931 
0.06470123881108233 
0.0639123642898198 
0.06202123259413381 
0.05818667769830197 
0.051555681945814044 
0.0382831821799101 
0.029093349951381228 
3.595178132975717 
3.595178132975717 
3.595178132975717 
3.595178132975717 
3.595178132975717 
3.595178132975717 
3.595178132975717 
3.595178132975717 
3.595178132975717 
3.595178132975717 
3.595178132975717 
3.595178138526832 
3.595167630265904 
3.594769992787404 
3.58692165414176 
3.55748683844581 
3.469382253706853 
3.2788525672344795 
2.924735947873457 
2.181911512577627 
1.66880499419264 
147.86677764444528 
147.86677764444528 
147.86677764444528 
147.86677764444528 
147.86677764444528 
147.86677764444528 
147.86677764444528 
147.86677764444528 
147.86677764444528 
147.86677764444528 
147.86677764444528 
147.8667772114583 
147.86674374933634 
147.8651083353099 
147.81379643058472 
146.99972771259334 
144.34287293751953 
137.2770890017971 
123.47987953520429 
92.54340359865495 
70.23084876989213 
4296.708083950661 
4296.708083950661 
4296.708083950661 
4296.708083950661 
4296.708083950661 
4296.708083950661 
4296.708083950661 
4296.708083950661 
4296.708083950661 
4296.708083950661 
4296.708083950661 
4296.708082868194 
4296.707999473791 
4296.703198053418 
4296.509771056776 
4291.624772112533 
4232.019994962477 
4066.4466452899883 
3679.344803411698 
2770.910156513205 
2138.912487914534 
81996.4373199422 
81996.4373199422 
81996.4373199422 
81996.4373199422 
81996.4373199422 
81996.4373199422 
81996.4373199422 
81996.4373199422 
81996.4373199422 
81996.4373199422 
81996.4373199422 
81996.43731799375 
81996.43714871805 
81996.42623922252 
81995.91022470251 
81979.25351561549 
81654.64343637682 
78793.8017302453 
72110.45834719928 
54192.636938255026 
40405.77584872861 
920526.6825529354 
920526.6825529354 
920526.6825529354 
920526.6825529354 
920526.6825529354 
920526.6825529354 
920526.6825529354 
920526.6825529354 
920526.6825529354 
920526.6825529354 
920526.6825529354 
920526.6825497602 
920526.6822614907 
920526.6622035131 
920525.6080620446 
920485.9060031403 
919501.3146720272 
905578.6880432649 
823606.5046077848 
617639.472480405 
480667.92080053693 
5118526.263056776 
5118526.263056776 
5118526.263056776 
5118526.263056776 
5118526.263056776 
5118526.263056776 
5118526.263056776 
5118526.263056776 
5118526.263056776 
5118526.263056776 
5118526.263056776 
5118526.263052307 
5118526.262634447 
5118526.232064811 
5118524.512278936 
5118453.228957282 
5116408.345384063 
5079643.7417758275 
4730375.925080944 
3320842.91557259 
2225788.4090320803 
11560794.123318471 
11560794.123318471 
11560794.123318471 
11560794.123318471 
11560794.123318471 
11560794.123318471 
11560794.123318471 
11560794.123318471 
11560794.123318471 
11560794.123318471 
11560794.123318471 
11560794.123313075 
11560794.122793263 
11560794.083630994 
11560791.793854348 
11560691.679162014 
11557579.400740866 
11493944.601200573 
10737813.768355202 
6691268.357808413 
3340233.3954243115 
14569900.955756094 
14569900.955756094 
14569900.955756094 
14569900.955756094 
14569900.955756094 
14569900.955756094 
14569900.955756094 
14569900.955756094 
14569900.955756094 
14569900.955756094 
14569900.955756094 
14569900.955750342 
14569900.955191668 
14569900.912692174 
14569898.396995869 
14569786.444375133 
14566217.623842454 
14490036.273497459 
13524985.256667115 
7873105.577345515 
3113554.906170943 
</DataArray>
<DataArray type="Float64" Name="sigma_yy" NumberOfComponents="1" format="ascii" >
0.0 
0.0 
0.0 
0.0 
0.0 
0.0 
0.0 
0.0 
0.0 
0.0 
0.0 
0.0 
0.0 
0.0 
0.0 
0.0 
0.0 
0.0 
0.0 
0.0 
0.0 
0.0 
0.0 
0.0 
0.0 
0.0 
0.0 
0.0 
0.0 
0.0 
0.0 
0.0 
0.0 
0.0 
0.0 
0.0 
0.0 
0.0 
0.0 
0.0 
0.0 
0.0 
0.0 
0.0 
0.0 
0.0 
0.0 
0.0 
0.0 
0.0 
0.0 
0.0 
0.0 
0.0 
0.0 
0.0 
0.0 
0.0 
0.0 
0.0 
0.0 
0.0 
0.0 
0.0 
0.0 
0.0 
0.0 
0.0 
0.0 
0.0 
0.0 
0.0 
0.0 
0.0 
0.0 
0.0 
0.0 
0.0 
0.0 
0.0 
0.0 
0.0 
0.0 
0.0 
0.0 
0.0 
0.0 
0.0 
0.0 
0.0 
0.0 
0.0 
0.0 
0.0 
0.0 
0.0 
0.0 
0.0 
0.0 
0.0 
0.0 
0.0 
0.0 
0.0 
0.0 
0.0 
0.0 
0.0 
0.0 
0.0 
0.0 
0.0 
0.0 
0.0 
0.0 
0.0 
0.0 
0.0 
0.0 
0.0 
0.0 
0.0 
0.0 
0.0 
0.0 
0.0 
0.0 
0.0 
0.0 
0.0 
0.0 
0.0 
0.0 
0.0 
0.0 
0.0 
0.0 
0.0 
0.0 
0.0 
0.0 
0.0 
0.0 
0.0 
0.0 
0.0 
0.0 
0.0 
0.0 
0.0 
0.0 
0.0 
0.0 
0.0 
0.0 
0.0 
0.0 
0.0 
0.0 
0.0 
0.0 
0.0 
0.0 
0.0 
0.0 
0.0 
0.0 
0.0 
0.0 
0.0 
0.0 
0.0 
0.0 
0.0 
0.0 
0.0 
0.0 
0.0 
0.0 
0.0 
0.0 
0.0 
0.0 
0.0 
0.0 
0.0 
0.0 
0.0 
0.0 
0.0 
0.0 
0.0 
0.0 
0.0 
0.0 
0.0 
0.0 
0.0 
0.0 
0.0 
0.0 
0.0 
0.0 
0.0 
0.0 
0.0 
0.0 
0.0 
0.0 
0.0 
1.9051427102567683e-05 
1.9051427102567683e-05 
1.9051427102567683e-05 
1.9051427102567683e-05 
1.9051427102567683e-05 
1.9051427102567683e-05 
1.9051427102567683e-05 
1.9051427102567683e-05 
1.9051427102567683e-05 
1.9051427102567683e-05 
1.9051427102567683e-05 
1.9051427102567683e-05 
1.8907098109366412e-05 
1.8618440122963872e-05 
1.84741111297626e-05 
1.829092433069945e-05 
1.7635892746170608e-05 
1.6336931807359175e-05 
1.417199690934012e-05 
1.185718190299667e-05 
1.0880185641326532e-05 
0.0016851853246180324 
0.0016851853246180324 
0.0016851853246180324 
0.0016851853246180324 
0.0016851853246180324 
0.0016851853246180324 
0.0016851853246180324 
0.0016851853246180324 
0.0016851853246180324 
0.0016851853246180324 
0.0016851853246180324 
0.0016851853246180324 
0.0016847800932140442 
0.0016825152382438089 
0.0016752987885837454 
0.0016546208847501018 
0.0016047385642536935 
0.0015060619418250096 
0.0013378742558245447 
0.0011293466162243246 
0.0010248912829524668 
0.12071099675381444 
0.12071099675381444 
0.12071099675381444 
0.12071099675381444 
0.12071099675381444 
0.12071099675381444 
0.12071099675381444 
0.12071099675381444 
0.12071099675381444 
0.12071099675381444 