<?xml version="1.0"?>
<VTKFile type="UnstructuredGrid" version="0.1" byte_order="LittleEndian" compressor="vtkZLibDataCompressor">
<UnstructuredGrid>
<Piece NumberOfPoints="441" NumberOfCells="400">
<PointData>
<DataArray type="Float64" Name="displacement" NumberOfComponents="3" format="ascii" >
0.0 1.4671068115302216e-14  0.
5.275393589916602e-23 1.4671051539877372e-14  0.
-4.324672214781912e-21 1.4671048010060557e-14  0.
-3.036565909249133e-20 1.467101957626954e-14  0.
-1.0616392793286453e-19 1.4670886633485912e-14  0.
-3.4035282004147256e-19 1.4670506605624574e-14  0.
-1.0122053679966194e-18 1.466934072536673e-14  0.
-2.7324177427880495e-18 1.4666040636883092e-14  0.
-6.736839872188683e-18 1.465771622743954e-14  0.
-1.5246548546596277e-17 1.463822196689523e-14  0.
-3.184408647576818e-17 1.459637539570614e-14  0.
-6.172439438827396e-17 1.4512905866971183e-14  0.
-1.115240486583435e-16 1.4357932758210628e-14  0.
-1.8841043185042603e-16 1.4089073019227659e-14  0.
-2.98648538713371e-16 1.3651610587398812e-14  0.
-4.451951186680184e-16 1.2982474324921673e-14  0.
-6.255414420394561e-16 1.2017995691789397e-14  0.
-8.300957577399479e-16 1.0705634812504404e-14  0.
-1.0453352081964275e-15 9.019959765571015e-15  0.
-1.3322806279409061e-15 7.0428893653262055e-15  0.
-3.427003101103748e-15 7.082847014834294e-15  0.
0.0 9.394350068738614e-14  0.
-8.489930574764583e-21 9.394349795156178e-14  0.
-2.070952713868201e-20 9.394347956421345e-14  0.
-1.028322928591194e-19 9.394338858185502e-14  0.
-4.1918950441040887e-19 9.394298597381258e-14  0.
-1.5177502173408652e-18 9.394145537519477e-14  0.
-4.841495313818128e-18 9.39363113118713e-14  0.
-1.3893099945579742e-17 9.392099046146215e-14  0.
-3.599781887567321e-17 9.387973828963842e-14  0.
-8.498511242738642e-17 9.377885357882543e-14  0.
-1.841552840943237e-16 9.355278733608116e-14  0.
-3.684367816516298e-16 9.308592557086213e-14  0.
-6.83928347197492e-16 9.219245576340788e-14  0.
-1.182786378263491e-15 9.060103065435875e-14  0.
-1.91235000737013e-15 8.79532723163539e-14  0.
-2.898948964154588e-15 8.38255866850296e-14  0.
-4.130414759915324e-15 7.778085126117925e-14  0.
-5.543305538613908e-15 6.944814678489881e-14  0.
-7.043428013908393e-15 5.86402481223411e-14  0.
-9.078677171221935e-15 4.604735431502412e-14  0.
-2.5576915333411402e-14 4.734123068967434e-14  0.
0.0 1.0614579192113394e-12  0.
-2.0647243201259982e-20 1.0614579253659961e-12  0.
-1.145381979111346e-19 1.0614578305767505e-12  0.
-6.18637452568313e-19 1.0614573150027794e-12  0.
-2.8320878253024333e-18 1.061454802134011e-12  0.
-1.1236242504240927e-17 1.0614441873601257e-12  0.
-3.8831273295918375e-17 1.0614056024819254e-12  0.
-1.188045381927601e-16 1.0612819593260408e-12  0.
-3.2530498079064775e-16 1.0609288204321864e-12  0.
-8.054965703466208e-16 1.0600195148634094e-12  0.
-1.8181245335932563e-15 1.057890259161174e-12  0.
-3.767209250899446e-15 1.0533227551923962e-12  0.
-7.205686049662187e-15 1.0442926850937172e-12  0.
-1.2784557883178537e-14 1.0277553447037398e-12  0.
-2.1123059480696994e-14 9.995821293518815e-13  0.
-3.26098561635587e-14 9.547752339238999e-13  0.
-4.716904380794318e-14 8.880529113604944e-13  0.
-6.408672950674025e-14 7.948077150763733e-13  0.
-8.224061402916425e-14 6.725744718747605e-13  0.
-1.0698120672398314e-13 5.293927581602347e-13  0.
-2.9996217007385254e-13 5.472327570246242e-13  0.
0.0 1.067705278702998e-11  0.
-7.338299085834888e-20 1.0677052743349583e-11  0.
-5.191882083078077e-19 1.0677052379645266e-11  0.
-3.1795242684675196e-18 1.0677049912906351e-11  0.
-1.6308610181589575e-17 1.0677036409168185e-11  0.
-7.108469720308533e-17 1.067697367903876e-11  0.
-2.6704417489507976e-16 1.06767242098318e-11  0.
-8.768393942576545e-16 1.0675861603759023e-11  0.
-2.5519006463577564e-15 1.0673230122288201e-11  0.
-6.6551504608127705e-15 1.066606319781927e-11  0.
-1.570586837905163e-14 1.0648455023584157e-11  0.
-3.3800335487671156e-14 1.0609101623376351e-11  0.
-6.678063852297943e-14 1.0528523557556363e-11  0.
-1.2178302157914875e-13 1.0376487374381647e-11  0.
-2.059439576704585e-13 1.0110841072802189e-11  0.
-3.2416983868655013e-13 9.679267504636605e-12  0.
-4.764963711146284e-13 9.025118110127673e-12  0.
-6.559007659194879e-13 8.097607296197018e-12  0.
-8.509235091900204e-13 6.868266026514833e-12  0.
-1.1213006820892315e-12 5.424438329572845e-12  0.
-3.1050805733749543e-12 5.637950960221815e-12  0.
0.0 9.428632690802447e-11  0.
-2.6590733036303953e-19 9.428632675803068e-11  0.
-2.0904224899802835e-18 9.428632537579725e-11  0.
-1.40306308086518e-17 9.428631540973713e-11  0.
-7.97587401518883e-17 9.428625462237908e-11  0.
-3.834685280026799e-16 9.42859415312875e-11  0.
-1.5713060455363256e-15 9.428457436088574e-11  0.
-5.570361036389472e-15 9.427943920022078e-11  0.
-1.7307109810435378e-14 9.42626219225005e-11  0.
-4.775158134877475e-14 9.42139371678992e-11  0.
-1.182100532994651e-13 9.408794465672381e-11  0.
-2.650117526356449e-13 9.379358229618562e-11  0.
-5.420124716569901e-13 9.316771669799185e-11  0.
-1.017843968295536e-12 9.194845930793127e-11  0.
-1.764088653776721e-12 8.975989881325423e-11  0.
-2.8344194925005395e-12 8.612308415217486e-11  0.
-4.237212553741947e-12 8.050646606446632e-11  0.
-5.913216748914183e-12 7.242050027615157e-11  0.
-7.760894818316881e-12 6.158026490000216e-11  0.
-1.0373794534350955e-11 4.883131000985281e-11  0.
-2.828819961865796e-11 5.108636758079689e-11  0.
0.0 7.237775788939177e-10  0.
-8.546831859606899e-19 7.237775784568392e-10  0.
-7.312288112484762e-18 7.237775740441008e-10  0.
-5.356460209289506e-17 7.237775392484468e-10  0.
-3.339329552186297e-16 7.237773063366533e-10  0.
-1.7631346876403717e-15 7.237759855796296e-10  0.
-7.900698692071721e-15 7.237696436627698e-10  0.
-3.031318954619125e-14 7.237437065485441e-10  0.
-1.0097479001580657e-13 7.236521130002151e-10  0.
-2.956498584978887e-13 7.233692308227633e-10  0.
-7.702207333299387e-13 7.225953116644716e-10  0.
-1.802863898871866e-12 7.206998042549048e-10  0.
-3.824960822426071e-12 7.165048535304752e-10  0.
-7.40709237225394e-12 7.080518816511525e-10  0.
-1.3173088337738223e-11 6.924421374724424e-10  0.
-2.1621790196820907e-11 6.658825833801085e-10  0.
-3.289414874943057e-11 6.24057057717718e-10  0.
-4.6561094846432146e-11 5.628865632227219e-10  0.
-6.186342659770901e-11 4.799321121212208e-10  0.
-8.400316668003233e-11 3.8244663959525927e-10  0.
-2.2471963570298666e-10 4.033011673190339e-10  0.
0.0 4.774680194940395e-09  0.
-2.462549460687865e-18 4.774680193781542e-09  0.
-2.2690199551454062e-17 4.77468018121724e-09  0.
-1.7919610626303143e-16 4.774680074994978e-09  0.
-1.211977858938642e-15 4.774679304205606e-09  0.
-6.970143621437951e-15 4.774674539829559e-09  0.
-3.400707470122955e-14 4.7746495679560725e-09  0.
-1.413151483128121e-13 4.774538394873611e-09  0.
-5.051214749739176e-13 4.774114832533368e-09  0.
-1.5731979289047378e-12 4.7727159954797065e-09  0.
-4.319935959029755e-12 4.768662578652862e-09  0.
-1.0576617217003324e-11 4.758234425441172e-09  0.
-2.3302520075083873e-11 4.734177609809595e-09  0.
-4.6580817692760515e-11 4.68397833448355e-09  0.
-8.504766022199324e-11 4.588537984801079e-09  0.
-1.4265803733800523e-10 4.422184693746358e-09  0.
-2.2089362308592636e-10 4.1549936152048885e-09  0.
-3.1718516669866764e-10 3.757997441355606e-09  0.
-4.268180992599951e-10 3.2136685958711574e-09  0.
-5.897171785897145e-10 2.5767870645306385e-09  0.
-1.5400098825297183e-09 2.7440917762831457e-09  0.
0.0 2.6706736373195114e-08  0.
-6.4549157136319876e-18 2.6706736370366583e-08  0.
-6.308535668853714e-17 2.6706736338518644e-08  0.
-5.319506632489403e-16 2.6706736051592807e-08  0.
-3.862540554451599e-15 2.6706733818871017e-08  0.
-2.396220433595926e-14 2.670671893947835e-08  0.
-1.2637384452525049e-13 2.670663454598049e-08  0.
-5.663768731075118e-13 2.670622825938641e-08  0.
-2.16984475256763e-12 2.6704561909362335e-08  0.
-7.183118997972394e-12 2.6698685650781702e-08  0.
-2.0795304532414338e-11 2.668065237872089e-08  0.
-5.324791846229617e-11 2.6631930030328684e-08  0.
-1.2183828710246776e-10 2.6514770438483558e-08  0.
-2.513163676555331e-10 2.6261678038161472e-08  0.
-4.709051365305374e-10 2.5766485977077886e-08  0.
-8.067058430062884e-10 2.4882875451839222e-08  0.
-1.270551576784426e-09 2.3436474678501006e-08  0.
-1.849650887439444e-09 2.125514140989197e-08  0.
-2.5211933590685365e-09 1.8236052264226424e-08  0.
-3.550171412877413e-09 1.4740813188400533e-08  0.
-8.991859151900707e-09 1.5892554138109078e-08  0.
0.0 1.2464836603958378e-07  0.
-1.543065981262292e-17 1.246483660334095e-07  0.
-1.5868657619545004e-16 1.246483659606526e-07  0.
-1.4158874763812695e-15 1.246483652678118e-07  0.
-1.093474700260169e-14 1.2464835954250644e-07  0.
-7.248857595187313e-14 1.2464831881033388e-07  0.
-4.097272383584596e-13 1.246480712477209e-07  0.
-1.9678903996359935e-12 1.2464679228453828e-07  0.
-8.04594863753906e-12 1.2464117937667065e-07  0.
-2.8224435686267456e-11 1.246201321661553e-07  0.
-8.592782258307611e-11 1.2455197221439242e-07  0.
-2.2962020167667956e-10 1.243591351964782e-07  0.
-5.444958468999728e-10 1.2387712895294114e-07  0.
-1.1565863162341267e-09 1.2280199193922945e-07  0.
-2.2193087550190866e-09 1.2064291526420523e-07  0.
-3.874625201508851e-09 1.1670924120566716e-07  0.
-6.194315089711861e-09 1.1016414157889628e-07  0.
-9.12665915762111e-09 1.0017216265641591e-07  0.
-1.2594795389926539e-08 8.626447015445407e-08  0.
-1.8101863673931823e-08 7.050833800864019e-08  0.
-4.408568684419319e-08 7.72240080720295e-08  0.
0.0 4.7617217881931006e-07  0.
-3.385993710741442e-17 4.7617217880703655e-07  0.
-3.637847760900661e-16 4.761721786560938e-07  0.
-3.4084719677732863e-15 4.761721771494688e-07  0.
-2.7765670182313317e-14 4.761721640365372e-07  0.
-1.9498165459775488e-13 4.761720653383883e-07  0.
-1.1712175890814334e-12 4.761714282604909e-07  0.
-5.9838557700407294e-12 4.7616792631052186e-07  0.
-2.596154051505355e-11 4.76151592198212e-07  0.
-9.605149949491746e-11 4.760868377347697e-07  0.
-3.059976361086921e-10 4.7586690683707055e-07  0.
-8.494873787809072e-10 4.7521925175825026e-07  0.
-2.0775905194283536e-09 4.7354689920019605e-07  0.
-4.523961712368121e-09 4.6971845151581405e-07  0.
-8.848342135201648e-09 4.6187497313783945e-07  0.
-1.5673733414744818e-08 4.473704053892405e-07  0.
-2.532463852602114e-08 4.22982816581879e-07  0.
-3.762875565376448e-08 3.85517459870975e-07  0.
-5.248888244807417e-08 3.334882043009946e-07  0.
-7.707641582982398e-08 2.7700317051221413e-07  0.
-1.784192154230821e-07 3.0965098994078526e-07  0.
0.0 1.454659422645263e-06  0.
-6.845295111051324e-17 1.4546594226228737e-06  0.
-7.64211837158034e-16 1.4546594223378164e-06  0.
-7.468149593728077e-15 1.4546594193747048e-06  0.
-6.36998205187044e-14 1.4546593924095842e-06  0.
-4.701574710753399e-13 1.454659179361156e-06  0.
-2.9774708338494645e-12 1.4546577308846944e-06  0.
-1.6061509446044844e-11 1.454649326185451e-06  0.
-7.347444202226844e-11 1.4546079636131328e-06  0.
-2.8517913639971777e-10 1.4544356583358818e-06  0.
-9.454853668390348e-10 1.4538255638239153e-06  0.
-2.7083637373631468e-09 1.4519707738271416e-06  0.
-6.784874684931535e-09 1.447066693941123e-06  0.
-1.5028468549637123e-08 1.4356606659489098e-06  0.
-2.973719860983822e-08 1.4120668309554754e-06  0.
-5.30268388866407e-08 1.3682592530402912e-06  0.
-8.595764244610976e-08 1.2946370609305947e-06  0.
-1.2796119546470134e-07 1.1821465095728426e-06  0.
-1.7986147934975546e-07 1.0287915092905401e-06  0.
-2.69757289045305e-07 8.760736853738383e-07  0.
-5.84328852517799e-07 1.0057778185479786e-06  0.
0.0 3.46390593123003e-06  0.
-1.2792963074841163e-16 3.4639059311926708e-06  0.
-1.4758486048156731e-15 3.4639059307029896e-06  0.
-1.4953500711508082e-14 3.4639059254313894e-06  0.
-1.3268132355754716e-13 3.4639058755857904e-06  0.
-1.0220625207513266e-12 3.4639054650290717e-06  0.
-6.774266081540159e-12 3.463902546335042e-06  0.
-3.830737122250118e-11 3.4638848015317137e-06  0.
-1.835788854280607e-10 3.463793291569513e-06  0.
-7.433715670052415e-10 3.463395152192738e-06  0.
-2.5511043261716506e-09 3.4619339908102235e-06  0.
-7.490081775362284e-09 3.457379525585051e-06  0.
-1.905707476360982e-08 3.4451742902702503e-06  0.
-4.253129602670699e-08 3.416684150724034e-06  0.
-8.42274591730722e-08 3.3580560627733544e-06  0.
-1.4953548497169172e-07 3.250520891443937e-06  0.
-2.4044471521824164e-07 3.0731333673904795e-06  0.
-3.5508231508769296e-07 2.8092468726810915e-06  0.
-5.002030520892765e-07 2.4679071067572354e-06  0.
-7.637178254534082e-07 2.188396677213731e-06  0.
-1.5159235150088678e-06 2.598335585478946e-06  0.
0.0 6.317782543804964e-06  0.
-2.2140571160998015e-16 6.317782543748123e-06  0.
-2.6268671511710227e-15 6.317782542983924e-06  0.
-2.7449868798904715e-14 6.31778253450663e-06  0.
-2.5189322956621363e-13 6.317782451679882e-06  0.
-2.012325937296809e-12 6.3177817447890575e-06  0.
-1.3866465257431141e-11 6.317776524177069e-06  0.
-8.164898959070428e-11 6.3177434891728085e-06  0.
-4.073328539863199e-10 6.317566122723023e-06  0.
-1.7114068504379558e-09 6.316764778315729e-06  0.
-6.0492430772231615e-09 6.313731934298029e-06  0.
-1.8096339113439762e-08 6.304097417634903e-06  0.
-4.63814082469384e-08 6.278154070314922e-06  0.
-1.0326717562844794e-07 6.218103793172523e-06  0.
-2.0220388726318242e-07 6.0971228776764874e-06  0.
-3.527035872498893e-07 5.8822610927987575e-06  0.
-5.545888950133157e-07 5.543017278715296e-06  0.
-8.021903382797167e-07 5.069012364853245e-06  0.
-1.124016977439848e-06 4.529394934468869e-06  0.
-1.729408802808454e-06 4.291888945763831e-06  0.
-3.0654109758077256e-06 5.286034447338081e-06  0.
0.0 9.008804393930656e-06  0.
-3.561753356326212e-16 9.008804393851544e-06  0.
-4.3273638317589684e-15 9.008804392764441e-06  0.
-4.641665471319415e-14 9.008804380394447e-06  0.
-4.3822996103881e-13 9.008804256138543e-06  0.
-3.610315640532413e-12 9.00880316333582e-06  0.
-2.5709121365471085e-11 9.008794828413499e-06  0.
-1.5666497192032157e-10 9.00874026895012e-06  0.
-8.088503348778208e-10 9.008437106717696e-06  0.
-3.5077575424192966e-09 9.007022367359345e-06  0.
-1.2713558568881688e-08 9.001525256509798e-06  0.
-3.85684239351067e-08 8.983803698266098e-06  0.
-9.88947097895701e-08 8.936177883407583e-06  0.
-2.1760688645783722e-07 8.8280665395256e-06  0.
-4.168556987279174e-07 8.617633348356925e-06  0.
-7.049235387874265e-07 8.26272759694508e-06  0.
-1.070210185481538e-06 7.740534207397155e-06  0.
-1.4985450938088543e-06 7.0911212402288985e-06  0.
-2.0752672482416187e-06 6.550157256838007e-06  0.
-3.1465642356617725e-06 6.836170341227467e-06  0.
-4.869148836381088e-06 8.599876916022183e-06  0.
0.0 1.1102612905940662e-05  0.
-5.351407925511188e-16 1.1102612905839452e-05  0.
-6.632977891520813e-15 1.1102612904422905e-05  0.
-7.272414617842031e-14 1.1102612887959528e-05  0.
-7.031594770941803e-13 1.1102612718730728e-05  0.
-5.944036345634931e-12 1.1102611192777803e-05  0.
-4.350902419180835e-11 1.1102599237925273e-05  0.
-2.728813905859628e-10 1.1102518739105803e-05  0.
-1.450255363702291e-09 1.1102058373251467e-05  0.
-6.460967671095561e-09 1.1099850369570333e-05  0.
-2.3919831902793517e-08 1.1091076567239893e-05  0.
-7.333715894376609e-08 1.1062458132653802e-05  0.
-1.8722113238338438e-07 1.0986001076732227e-05  0.
-4.0398549230156714e-07 1.0817205591177351e-05  0.
-7.50427294286649e-07 1.0503926193807785e-05  0.
-1.2196620308943493e-06 1.0008996897900107e-05  0.
-1.775426316712728e-06 9.346802186598284e-06  0.
-2.4074657497963333e-06 8.664574854577448e-06  0.
-3.2958180194006535e-06 8.464886606416309e-06  0.
-4.77561080230449e-06 9.65937710135969e-06  0.
-6.46247065533753e-06 1.1795600574592405e-05  0.
0.0 1.3448510434113702e-05  0.
-7.529888083350678e-16 1.3448510433995536e-05  0.
-9.488240861319e-15 1.3448510432316893e-05  0.
-1.0592689720827977e-13 1.3448510412463802e-05  0.
-1.0444923528845344e-12 1.3448510204478062e-05  0.
-9.018683628766024e-12 1.3448508290079552e-05  0.
-6.752934242855658e-11 1.3448492957248857e-05  0.
-4.3373079556413065e-10 1.3448387276285924e-05  0.
-2.361180794208293e-09 1.344776830504578e-05  0.
-1.0758883330267278e-08 1.344473088559976e-05  0.
-4.054988485947946e-08 1.3432430417645564e-05  0.
-1.2536238361188598e-07 1.3391916301531574e-05  0.
-3.1784172027836026e-07 1.3284475991441163e-05  0.
-6.692185599276661e-07 1.3054886195433816e-05  0.
-1.1977304488860313e-06 1.265291428995414e-05  0.
-1.8667865815721839e-06 1.2065376039187623e-05  0.
-2.6142150844920092e-06 1.1369580597172845e-05  0.
-3.4972830418402734e-06 1.0849698529401946e-05  0.
-4.765622393850611e-06 1.1213206170886001e-05  0.
-6.4780988568653635e-06 1.291992330878223e-05  0.
-7.970068700611848e-06 1.4487999478720941e-05  0.
0.0 1.6005222736458723e-05  0.
-9.931501368379723e-16 1.6005222736334778e-05  0.
-1.2680792069544522e-14 1.600522273455275e-05  0.
-1.4363062744023973e-13 1.6005222713177097e-05  0.
-1.4386641113133355e-12 1.6005222485781765e-05  0.
-1.2634442911046661e-11 1.600522035776001e-05  0.
-9.633401479881251e-11 1.6005203008087937e-05  0.
-6.306390022736482e-10 1.600508115678197e-05  0.
-3.5001053476813453e-09 1.6004353562650194e-05  0.
-1.6242043579679228e-08 1.6000715868889228e-05  0.
-6.211545798172691e-08 1.5985751739152627e-05  0.
-1.9329883127285593e-07 1.5936054891590227e-05  0.
-4.864082158000053e-07 1.5805179489100454e-05  0.
-9.976159848204068e-07 1.5534624392303077e-05  0.
-1.7151464032887815e-06 1.5091135225642172e-05  0.
-2.57367412034442e-06 1.4499233457826108e-05  0.
-3.5245488762235423e-06 1.389631834048598e-05  0.
-4.7316931412715905e-06 1.3705867152699535e-05  0.
-6.412741233894228e-06 1.454345204982127e-05  0.
-8.155024504901516e-06 1.5896121529702326e-05  0.
-9.505985716701437e-06 1.6509681294113655e-05  0.
0.0 1.8251578744392832e-05  0.
-1.23005148972667e-15 1.8251578744278015e-05  0.
-1.586498214091745e-14 1.825157874261212e-05  0.
-1.816937799317095e-13 1.825157872241582e-05  0.
-1.841856384899611e-12 1.8251578505073e-05  0.
-1.6385881203548677e-11 1.825157644556516e-05  0.
-1.2667904143584248e-10 1.8251559427777908e-05  0.
-8.414518901221462e-10 1.8251438196119136e-05  0.
-4.739811658636641e-09 1.825070362635452e-05  0.
-2.2306203179650037e-08 1.824697833245243e-05  0.
-8.627982095412843e-08 1.8231466399297352e-05  0.
-2.6985672349379504e-07 1.8179608984203302e-05  0.
-6.744254252157167e-07 1.8043797403688652e-05  0.
-1.3497554007837125e-06 1.7771182743307228e-05  0.
-2.2318180468806064e-06 1.7353771860578932e-05  0.
-3.249542767990761e-06 1.685459309136785e-05  0.
-4.441842252267315e-06 1.644142220935692e-05  0.
-5.9556502624989395e-06 1.6572618654322e-05  0.
-7.816478411594226e-06 1.7499087765902154e-05  0.
-9.3195859827916e-06 1.818573021564091e-05  0.
-1.0553487416998138e-05 1.8590454516079182e-05  0.
0.0 2.0700031594131704e-05  0.
-1.4321925310843509e-15 2.0700031594042817e-05  0.
-1.860424692152652e-14 2.0700031592744403e-05  0.
-2.1473273711789655e-13 2.070003157688357e-05  0.
-2.195243201641356e-12 2.0700031404786335e-05  0.
-1.970862839174262e-11 2.0700029759465303e-05  0.
-1.538614478909593e-10 2.07000160337943e-05  0.
-1.0325651243613293e-09 2.0699917262551196e-05  0.
-5.877599536414153e-09 2.069931251536906e-05  0.
-2.7938708301737954e-08 2.0696214208044717e-05  0.
-1.0894998356797208e-07 2.0683199088982494e-05  0.
-3.420267837763237e-07 2.063946760051144e-05  0.
-8.504073700002801e-07 2.0525353053680374e-05  0.
-1.6691955386790658e-06 2.0301394442222785e-05  0.
-2.6719304034175085e-06 1.9978653887966974e-05  0.
-3.8050639219305852e-06 1.964045510305813e-05  0.
-5.235121815746829e-06 1.944374759471606e-05  0.
-6.9024443397315055e-06 1.9685938837253936e-05  0.
-8.534387023972403e-06 2.031568893672634e-05  0.
-9.847822003989758e-06 2.0612694155655145e-05  0.
-1.10829218323333e-05 2.119304757143982e-05  0.
0.0 2.3063359555688343e-05  0.
-1.5685697250024938e-15 2.306335955563974e-05  0.
-2.0462732751535922e-14 2.3063359554927325e-05  0.
-2.37281402036265e-13 2.30633595461851e-05  0.
-2.437977041148339e-12 2.3063359450864567e-05  0.
-2.2006823041482256e-11 2.3063358534740047e-05  0.
-1.7280272561818537e-10 2.3063350848797083e-05  0.
-1.1667905781296619e-09 2.306329520610175e-05  0.
-6.683227641430828e-09 2.3062952395945576e-05  0.
-3.195854642709521e-08 2.3061185276107534e-05  0.
-1.2523806847105051e-07 2.3053722038255595e-05  0.
-3.940570984073877e-07 2.3028563496229885e-05  0.
-9.767373861581618e-07 2.296302551661178e-05  0.
-1.8937888772664488e-06 2.283612595763904e-05  0.
-2.9673185914963792e-06 2.2661037740116088e-05  0.
-4.163010504732097e-06 2.2499017955293572e-05  0.
-5.741756964497164e-06 2.244494153383317e-05  0.
-7.431767492362547e-06 2.2599300918594294e-05  0.
-8.780464751534051e-06 2.2864516917598332e-05  0.
-1.0172881703348079e-05 2.3002662423155416e-05  0.
-1.1375761422401008e-05 2.3303907560204692e-05  0.
0.0 2.544999999999995e-05  0.
-1.6167713578351645e-15 2.544999999999995e-05  0.
-2.1121352242096498e-14 2.544999999999995e-05  0.
-2.452957348593194e-13 2.544999999999995e-05  0.
-2.524526387836685e-12 2.544999999999995e-05  0.
-2.2829107354563388e-11 2.544999999999995e-05  0.
-1.7960505183720093e-10 2.544999999999995e-05  0.
-1.2151854043031704e-09 2.544999999999995e-05  0.
-6.9748838300068665e-09 2.544999999999995e-05  0.
-3.3419665173671175e-08 2.544999999999995e-05  0.
-1.3117896178100702e-07 2.544999999999995e-05  0.
-4.1307099685199195e-07 2.544999999999995e-05  0.
-1.0228283156986231e-06 2.544999999999995e-05  0.
-1.974946864178264e-06 2.544999999999995e-05  0.
-3.07142965539922e-06 2.544999999999995e-05  0.
-4.2848076462022e-06 2.544999999999995e-05  0.
-5.9064873658330365e-06 2.544999999999995e-05  0.
-7.593356630446588e-06 2.544999999999995e-05  0.
-8.866878599035449e-06 2.544999999999995e-05  0.
-1.0332921577926988e-05 2.544999999999995e-05  0.
-1.1452851382397375e-05 2.544999999999995e-05  0.
</DataArray>
<DataArray type="Float64" Name="sigma_xx" NumberOfComponents="1" format="ascii" >
0.4439258738386796 
0.44392571840745615 
0.44392526321601605 
0.4439234979614069 
0.4439176914949881 
0.4438994172240028 
0.44384534936270353 
0.4437022971259806 
0.44335788373928137 
0.4425931954266103 
0.44101924334682946 
0.4380049989372024 
0.4326087710282421 
0.42354347806750053 
0.4092118199849891 
0.3878341092722336 
0.3576800078342045 
0.3173503682063482 
0.2652852160167639 
0.1806631955147963 
0.12525218640035968 
2.9310032623186535 
2.931002962558437 
2.931001624739692 
2.9309955462686323 
2.93097131565112 
2.930887682550675 
2.9306283011454317 
2.929906328663633 
2.928083769893063 
2.923871084137274 
2.91489765102959 
2.8971867460647607 
2.864637083099807 
2.8087083714378727 
2.718555058844884 
2.581833802306476 
2.386279479571484 
2.1217428314290734 
1.7778852445804454 
1.239561803201283 
0.8945119978065459 
29.632705988991138 
29.632704884319224 
29.63269794542532 
29.632662840173282 
29.63251012344513 
29.63193668215068 
29.63004099298948 
29.624458197652345 
29.609658763751753 
29.574001308985117 
29.49531584528485 
29.33523097770062 
29.03331375869732 
28.502999849244752 
27.63209336342775 
26.290455129585048 
24.34626503733383 
21.68756855214226 
18.196919626678458 
12.689338585447624 
9.15237711174299 
261.02965174912276 
261.02964763574647 
261.02961664387067 
261.0294426996783 
261.0286173598818 
261.02525600424354 
261.0133363944999 
260.976073718222 
260.8720906738248 
260.6104129387886 
260.01115407958673 
258.7530764763811 
256.3163278623825 
251.9390066346715 
244.61324354407833 
233.14840280341798 
216.31573728642098 
193.0443633307854 
162.15554823340022 
112.80612603470348 
80.98262064826218 
1996.682597837917 
1996.682582888764 
1996.68246185225 
1996.6817214722703 
1996.6778864899384 
1996.6609373978088 
1996.5963675649948 
1996.3814937684615 
1995.749152627901 
1994.0841123389223 
1990.1228897611916 
1981.5348865581666 
1964.4469953228322 
1933.0510905690705 
1879.5146338512754 
1794.42063987234 
1667.8829256377976 
1491.063889702548 
1253.6805018920068 
869.3259902686763 
620.3844618357654 
13105.149874637062 
13105.149826320156 
13105.149409148304 
13105.146658237696 
13105.131223750672 
13105.057478557388 
13104.75571355551 
13103.686736071202 
13100.366687968097 
13091.218208705064 
13068.605792448945 
13018.00240363082 
12914.634381810947 
12720.576029734417 
12383.776470470395 
11840.722531383792 
11023.734719359243 
9870.837381237281 
8304.979337075965 
5733.461765689006 
4060.300693320416 
72753.6773785342 
72753.67723914015 
72753.67596180635 
72753.66694481365 
72753.6125952055 
72753.33354377908 
72752.11133975777 
72747.51096918994 
72732.45727674736 
72689.10986123476 
72577.9994862341 
72321.85003967215 
71785.95609118874 
70760.55883226126 
68954.09923905469 
66007.13969860115 
61532.91064491249 
55169.13114230469 
46426.758764483966 
31856.195296128808 
22331.50695693519 
335674.52629579266 
335674.5259306292 
335674.52241536335 
335674.4960663015 
335674.3268293604 
335673.39970825834 
335669.07591383025 
335651.84817981307 
335592.6623530457 
335415.2018081534 
334945.3194277178 
333834.16642262513 
331464.34100023704 
326865.54339992057 
318683.625334723 
305247.7897150157 
284759.53303121735 
255500.35256009788 
214884.18480691267 
146179.61073747068 
101064.16053596296 
1258876.0910011816 
1258876.0901288572 
1258876.0813573569 
1258876.012077081 
1258875.5415635086 
1258872.8111203813 
1258859.333943193 
1258802.7578565553 
1258599.5862484872 
1257968.63043677 
1256252.8503174654 
1252119.462591319 
1243199.5444771273 
1225789.3718777832 
1194778.6589666216 
1143975.1811637168 
1066832.163006828 
956995.6753863599 
803290.5306611934 
539663.7891323661 
365874.8914576346 
3727057.775655117 
3727057.7737437347 
3727057.7537744306 
3727057.5886959303 
3727056.4116061986 
3727049.225833072 
3727011.9207706414 
3726847.7787213945 
3726234.4705884424 
3724272.553347773 
3718833.413056734 
3705599.9888103027 
3677009.595164056 
3621551.345067599 
3523999.2201238927 
3366875.968192758 
3132814.974629174 
2804704.4348703576 
2343927.198626235 
1545081.9018231584 
1017249.4258774307 
8379639.130629877 
8379639.12677269 
8379639.085114635 
8379638.726869901 
8379636.062163089 
8379619.060888942 
8379526.79653429 
8379103.558199993 
8377465.795563029 
8372097.233083908 
8357034.171343298 
8320384.232973244 
8242106.513996029 
8093572.756789974 
7840421.334532643 
7448461.568551642 
6889577.95981745 
6134923.281202879 
5079782.312852278 
3245669.743022126 
2036199.382247243 
13650853.450885233 
13650853.44369753 
13650853.36380279 
13650852.652974132 
13650847.169745307 
13650810.827112414 
13650605.860205257 
13649630.75654156 
13645740.62491335 
13632733.293354502 
13596040.011919513 
13507641.974192383 
13323447.507035801 
12987736.942921486 
12446307.616009297 
11665264.583582375 
10639103.31384154 
9352118.49539349 
7582511.071924011 
4568285.459449054 
2610090.328758888 
15568797.081982117 
15568797.069568545 
15568796.928130075 
15568795.63255437 
15568785.322342845 
15568714.716141032 
15568303.085776975 
15566282.031270571 
15558003.218180493 
15529870.192508716 
15450480.182039782 
15262780.86720845 
14886285.37827978 
14239197.042984279 
13278050.184615692 
12034189.522324288 
10606765.273987645 
9026566.14367706 
6915977.257253622 
3625845.207090201 
1610386.1074590972 
13430076.78161002 
13430076.761650305 
13430076.529373664 
13430074.348234218 
13430056.523507027 
13429931.00259144 
13429178.134797018 
13425379.648958411 
13409459.376786575 
13354623.95490723 
13200316.307947164 
12844701.601343524 
12166756.157205675 
11088308.253123349 
9655658.582298677 
8064366.133085126 
6567493.683005137 
5151244.617358333 
3258580.660347116 
1010121.7683276879 
-67572.51298688212 
12458861.260824181 
12458861.230841702 
12458860.875631347 
12458857.46957108 
12458829.00439075 
12458623.77731616 
12457362.859550558 
12450851.777177181 
12423020.24250735 
12326061.263020884 
12054451.340894502 
11447036.34147576 
10359656.684404036 
8791442.949294558 
6986361.272148927 
5361756.049018784 
4165036.842826883 
3048036.3968391465 
1309956.5898646389 
-17584.4465631044 
-238047.06927785557 
13761019.553956173 
13761019.511795327 
13761019.00486103 
13761014.059232907 
13760971.956806988 
13760662.445990475 
13758722.542873744 
13748510.137950182 
13704132.377373237 
13548068.93591832 
13113202.676329432 
12171473.224134745 
10604934.704481728 
8606647.828346672 
6681972.479199551 
5355379.003703144 
4498910.78635429 
3234630.036524036 
1222639.1655764477 
-70470.74005665211 
-220162.054590764 
13481023.35917752 
13481023.303579988 
13481022.62710105 
13481015.935373746 
13480958.118542694 
13480526.403680848 
13477776.91366397 
13463075.463407207 
13398331.022760801 
13168905.20244702 
12532935.923235938 
11198267.453445226 
9148071.787931962 
6899181.430394921 
5152752.896951915 
4174683.3930463716 
3267863.484476411 
1348561.230770851 
-555672.9166302087 
-1034590.0413594304 
-927803.5256730779 
13176379.69151247 
13176379.622659968 
13176378.777238214 
13176370.3251702 
13176296.46634569 
13175738.33779208 
13172139.829058437 
13152666.732010236 
13066015.71487629 
12757138.615673305 
11904732.246450637 
10164730.587395841 
7694002.845861809 
5424705.358226931 
4059952.808811587 
3126933.971045331 
1751064.5205419532 
-437015.6887366106 
-1371802.91756429 
-463461.08938076976 
74433.26895990409 
13505410.930148426 
13505410.849992394 
13505409.859422596 
13505399.881822573 
13505311.99157282 
13504642.204782236 
13500286.135143276 
13476512.516376961 
13369942.478483522 
12988446.220036982 
11939152.411617976 
9843027.810467277 
7061843.744802121 
4947147.581462126 
4007193.8613391863 
2739637.4244133877 
830398.319059974 
-439089.0149834815 
-423010.11168365204 
295760.6755601256 
635323.9901970993 
13331499.361132544 
13331499.273345754 
13331498.184309661 
13331487.165906427 
13331389.64410995 
13330642.716028543 
13325759.758674804 
13298975.225769479 
13178377.166265076 
12745558.975201014 
11557552.821360962 
9216566.683482846 
6251308.034941024 
4326624.221822511 