<?xml version="1.0"?>
<VTKFile type="UnstructuredGrid" version="0.1" byte_order="LittleEndian" compressor="vtkZLibDataCompressor">
<UnstructuredGrid>
<Piece NumberOfPoints="441" NumberOfCells="400">
<PointData>
<DataArray type="Float64" Name="displacement" NumberOfComponents="3" format="ascii" >
0.0 -2.942377229497703e-32  0.
4.919606226208461e-31 5.113861355513302e-31  0.
7.093514183413986e-31 -2.7377771620623646e-31  0.
4.543128656239863e-31 4.176978829981183e-33  0.
2.49750795106288e-31 -2.0362168537884865e-31  0.
1.4378810794671467e-33 -4.548187482008373e-32  0.
-2.091002153203694e-31 -1.6490660723631739e-31  0.
-9.932297760075641e-31 -6.178278160063664e-31  0.
-3.701061726231931e-30 -2.0835188497675758e-30  0.
-2.0399768426608105e-29 -1.4579374678639947e-29  0.
-9.279378038961239e-29 -5.797617011258965e-29  0.
-2.409643606101329e-28 -8.931246797462538e-29  0.
-5.543371467266235e-28 -2.2526603986114185e-28  0.
-1.0786867095196436e-27 -2.9723732136738927e-28  0.
-1.7348689920356355e-27 -3.6941423524029003e-28  0.
-2.504292966568893e-27 -3.8015609888531557e-28  0.
-3.0627046101205434e-27 -1.880650536659567e-28  0.
-3.384877962456897e-27 -1.4750902444807451e-28  0.
-3.2671563406432605e-27 3.1403828081512e-28  0.
-2.093600432398147e-27 6.255930708597167e-28  0.
-1.2655639049057413e-27 1.665545435760733e-27  0.
0.0 2.047108042500149e-28  0.
1.7939520338517881e-28 -3.665720513364843e-29  0.
1.4870458375517925e-28 2.6213255472355315e-29  0.
1.0049284133748485e-28 -8.442284711423374e-29  0.
7.423059586655727e-30 -7.283322148070959e-30  0.
-1.6741121001710777e-30 -2.0846544885777483e-30  0.
-1.0834996214874977e-29 -7.28466069166444e-30  0.
-9.019299961399225e-29 -7.24176145596262e-29  0.
-3.765470521202931e-28 -2.1766221612894043e-28  0.
-1.185176097626407e-27 -6.053724840247911e-28  0.
-4.830975946391014e-27 -3.1238895249863824e-27  0.
-1.984303683458319e-26 -1.18787075759738e-26  0.
-4.9439778969391583e-26 -1.866328871088079e-26  0.
-1.2914274641405984e-25 -6.299225030002373e-26  0.
-3.0164926178217184e-25 -1.1277997365517465e-25  0.
-6.567516988732373e-25 -1.6525582185947797e-25  0.
-7.782345237189135e-25 3.4560312264671325e-26  0.
-7.431798210579228e-25 -4.336435278300047e-26  0.
-7.94168329202342e-25 1.8381682115270674e-26  0.
-5.367542951625407e-25 1.3994392502939118e-25  0.
-3.6060317946272616e-25 4.521539626937525e-25  0.
0.0 1.9406550960467343e-21  0.
1.3138630724797943e-25 1.940556713446057e-21  0.
4.5742214474510443e-26 1.940512862184147e-21  0.
2.2969382172704688e-27 1.9405555747739884e-21  0.
5.997121022863111e-29 1.9405578125552377e-21  0.
-8.233754299605615e-29 1.9405578102154916e-21  0.
-1.082236363023743e-27 1.9405569593302623e-21  0.
-7.601960479103168e-27 1.9405521536225483e-21  0.
-5.932800016604159e-26 1.9405093905707394e-21  0.
-2.188312186348807e-25 1.9404461577780955e-21  0.
-5.908408800022078e-25 1.9402852170939436e-21  0.
-2.068965267909857e-24 1.9393879170446076e-21  0.
-7.465176624741761e-24 1.936316730877216e-21  0.
-1.9980060680536377e-23 1.9336279200549912e-21  0.
-5.34311585330612e-23 1.920201029403902e-21  0.
-1.974856782489317e-22 1.848383706155402e-21  0.
-2.0996486587210293e-22 1.2425389367893794e-21  0.
-2.157713842723877e-22 1.0792789836247944e-21  0.
-3.1552539157464234e-22 5.896224191409757e-22  0.
-2.371819025137237e-22 2.155246156696508e-22  0.
-2.882179069024948e-22 3.4828898201154993e-22  0.
0.0 2.1875898542538487e-19  0.
1.3026629135558078e-23 2.1878975766434456e-19  0.
3.0440421154880137e-25 2.1879749451770965e-19  0.
-5.2974529644407134e-27 2.1879790452118615e-19  0.
5.032076415682872e-28 2.1879790111102317e-19  0.
-2.9038926947618508e-27 2.187978998597868e-19  0.
-4.653854341230333e-26 2.1879785857728878e-19  0.
-4.48806664945697e-25 2.1879752085279627e-19  0.
-4.3289826378047e-24 2.187943282009803e-19  0.
-2.8270280933696443e-23 2.1878175165831095e-19  0.
-8.20904137881386e-23 2.187660811798295e-19  0.
-2.297431883550698e-22 2.1864852874276304e-19  0.
-9.482270121713266e-22 2.174742494317349e-19  0.
-2.379698932001445e-21 2.1488774557548833e-19  0.
-3.0285384654354756e-21 2.1030186458703778e-19  0.
-6.281713220970338e-21 1.9988266618027452e-19  0.
-8.239074932085654e-21 1.8629698596125498e-19  0.
-1.1458257232366783e-20 1.6716039384435977e-19  0.
-1.5685209217842134e-20 1.4161958134543676e-19  0.
-1.8061274902193948e-20 1.0968009162224942e-19  0.
-5.8248693624334e-20 1.1218623357098811e-19  0.
0.0 6.8951838913343905e-18  0.
-1.0068282786276316e-23 6.8963200366697496e-18  0.
-4.166202012558487e-24 6.896358485997932e-18  0.
8.993420469301978e-26 6.8963545481875495e-18  0.
-1.0465528230160889e-26 6.896354624443048e-18  0.
-1.574457637925962e-25 6.896354490123183e-18  0.
-8.69576129004269e-25 6.896353618239751e-18  0.
-2.5362476045633926e-23 6.8963322369753565e-18  0.
-1.6041311468803696e-22 6.896250035960389e-18  0.
-1.6641854695636006e-21 6.894370312381836e-18  0.
-4.249038881132581e-21 6.888342749591172e-18  0.
-1.2145585919519449e-20 6.871891074229965e-18  0.
-2.6937233131739084e-20 6.835362452159251e-18  0.
-5.403678509010971e-20 6.762210559376372e-18  0.
-9.92947291345827e-20 6.613265285290817e-18  0.
-1.6413608571662017e-19 6.372046210144118e-18  0.
-2.5056552785830285e-19 5.9865824106992e-18  0.
-3.594354652612161e-19 5.4186205876743644e-18  0.
-4.786263364671898e-19 4.6334431052679205e-18  0.
-6.269125118344951e-19 3.6604261154699786e-18  0.
-1.958186262875302e-18 3.715093365512868e-18  0.
0.0 1.8621462550345056e-16  0.
-3.751418297559727e-22 1.862107196647887e-16  0.
1.1559173967551257e-23 1.862104066740133e-16  0.
-5.439090119469782e-25 1.8621040508696578e-16  0.
-3.0230191789133617e-26 1.8621040465896268e-16  0.
-4.3032004554689066e-24 1.862104000479541e-16  0.
-6.964250205486003e-23 1.8621034851377975e-16  0.
-1.0359502301974213e-21 1.8620961718607134e-16  0.
-7.909956291641728e-21 1.8619957609936787e-16  0.
-3.1321317399307306e-20 1.8616529921401993e-16  0.
-9.948372569724073e-20 1.8604819420760432e-16  0.
-2.598719264760309e-19 1.8572376832281572e-16  0.
-6.139070563160881e-19 1.8492267352386074e-16  0.
-1.2834580373960797e-18 1.8318664085569718e-16  0.
-2.4286275345144823e-18 1.79767659319074e-16  0.
-4.188628180621271e-18 1.7366412691288257e-16  0.
-6.631363648062622e-18 1.6363723551651088e-16  0.
-9.670458157703296e-18 1.4851751094287259e-16  0.
-1.3097281047804018e-17 1.2742448414395552e-16  0.
-1.737839642654656e-17 1.0100515193355679e-16  0.
-5.459615615483241e-17 1.0302075871956095e-16  0.
0.0 4.398146375961226e-15  0.
-8.239425549347008e-22 4.398153539493569e-15  0.
-1.157324595983312e-22 4.398154533161195e-15  0.
3.076690621932802e-25 4.3981543417022994e-15  0.
-2.5773599769365975e-25 4.398154341194539e-15  0.
-1.2937827419077279e-23 4.3981543176534905e-15  0.
-1.0923125589812256e-21 4.398153156926077e-15  0.
-1.8651976680823662e-20 4.398134211268532e-15  0.
-1.1113833459031776e-19 4.398025744827869e-15  0.
-4.774846540146874e-19 4.397512864212293e-15  0.
-1.6318953240942048e-18 4.395654100484109e-15  0.
-4.743367462820414e-18 4.389964102096698e-15  0.
-1.1887309270821064e-17 4.375008462334003e-15  0.
-2.6347772405997066e-17 4.3404070283266876e-15  0.
-5.217886743065299e-17 4.269019442163383e-15  0.
-9.3401981142549e-17 4.136156041323498e-15  0.
-1.5221076004860396e-16 3.911373629242698e-15  0.
-2.27364381428387e-16 3.5632664795337886e-15  0.
-3.132800755538915e-16 3.067947993598942e-15  0.
-4.2236657167767973e-16 2.4401186048364523e-15  0.
-1.3262998242478447e-15 2.4977247890121164e-15  0.
0.0 8.995008687532235e-14  0.
-3.121089323722342e-21 8.995008329974452e-14  0.
3.5337776026215213e-23 8.995008004102639e-14  0.
-2.7125710771296806e-24 8.995008011268272e-14  0.
-2.8120234394124877e-24 8.995008010622961e-14  0.
-1.555091687284038e-22 8.995007992822619e-14  0.
-9.465569391982007e-21 8.995007176741419e-14  0.
-1.3842198712380013e-19 8.994996635249624e-14  0.
-1.0678352906711008e-18 8.994900451136177e-14  0.
-5.4778059633452595e-18 8.994355863965287e-14  0.
-2.1949964772703592e-17 8.992009986308194e-14  0.
-7.082406493150235e-17 8.983938330475665e-14  0.
-1.9403933039210136e-16 8.960611303546889e-14  0.
-4.589037818710468e-16 8.902600294134892e-14  0.
-9.59245789709457e-16 8.775777675692637e-14  0.
-1.7893957991542206e-15 8.528756568260159e-14  0.
-3.0159996722748573e-15 8.095259477487126e-14  0.
-4.621210591935393e-15 7.404410041292032e-14  0.
-6.4973626900634045e-15 6.399654996950935e-14  0.
-8.917104061552597e-15 5.1095923425716714e-14  0.
-2.7951824927519715e-14 5.251886469650422e-14  0.
0.0 1.5748354013436048e-12  0.
-2.5411928511334513e-21 1.5748353914720681e-12  0.
-6.667506905064097e-23 1.5748353935330676e-12  0.
6.810396934567246e-24 1.5748353936084824e-12  0.
-6.2128329329032354e-24 1.5748353935954418e-12  0.
-1.4929311165604988e-21 1.5748353908659081e-12  0.
-4.91400992139866e-20 1.5748353592041882e-12  0.
-6.91726926897267e-19 1.5748348761860553e-12  0.
-6.800225903836412e-18 1.5748295550627753e-12  0.
-4.815685355717963e-17 1.5747865780106866e-12  0.
-2.29232756607433e-16 1.574560065172012e-12  0.
-8.597965981850784e-16 1.5736445412943725e-12  0.
-2.599975816719542e-15 1.570682901473354e-12  0.
-6.6874460282208545e-15 1.5626285011760884e-12  0.
-1.484321288633976e-14 1.5437842284082963e-12  0.
-2.911503894737174e-14 1.505044865160709e-12  0.
-5.09144753903861e-14 1.434156448291959e-12  0.
-8.038302809543187e-14 1.3174280031510834e-12  0.
-1.155161302940798e-13 1.143433978137221e-12  0.
-1.6186993972781391e-13 9.169387827620894e-13  0.
-5.055093463999109e-13 9.471290689339306e-13  0.
0.0 2.328778564654563e-11  0.
-1.846341348620885e-22 2.328778565804928e-11  0.
1.1026669927878852e-22 2.328778565968488e-11  0.
4.2846001055011626e-24 2.3287785659611856e-11  0.
-1.9690451234190714e-23 2.3287785659580688e-11  0.
-6.883899031925997e-21 2.3287785655906045e-11  0.
-1.7976448399716943e-19 2.3287785552898455e-11  0.
-2.6957605747249756e-18 2.328778389662131e-11  0.
-3.196401076784563e-17 2.3287762048296754e-11  0.
-2.864695073648622e-16 2.3287541540897917e-11  0.
-1.839496074057658e-15 2.3285919473668228e-11  0.
-8.09283359178448e-15 2.3277991702567233e-11  0.
-2.822072904177324e-14 2.3248099545760273e-11  0.
-7.953708729611832e-14 2.3157683524159116e-11  0.
-1.909504465246306e-13 2.292757086622405e-11  0.
-3.9548047773297917e-13 2.242383783515836e-11  0.
-7.237376142934714e-13 2.14555524451082e-11  0.
-1.1797184103667525e-12 1.9800584218391883e-11  0.
-1.740078872565948e-12 1.7264248052501202e-11  0.
-2.494715298048189e-12 1.3914437811432324e-11  0.
-7.745947861019423e-12 1.4459681119914966e-11  0.
0.0 2.8623438086587253e-10  0.
-1.9917774287765766e-21 2.8623438087097546e-10  0.
8.99677813436532e-23 2.862343808689287e-10  0.
-1.3289013272945418e-23 2.8623438086926583e-10  0.
-2.5656925856234785e-22 2.8623438086896815e-10  0.
-2.182129935530395e-20 2.8623438085726706e-10  0.
-5.232667658064905e-19 2.862343805996257e-10  0.
-8.681723366357525e-18 2.86234375923397e-10  0.
-1.1835010205706387e-16 2.8623430538787295e-10  0.
-1.2646460293794878e-15 2.8623346135011237e-10  0.
-1.01631330116277e-14 2.862257816039627e-10  0.
-5.870335694017592e-14 2.861747750822014e-10  0.
-2.370528356010839e-13 2.85945224100286e-10  0.
-7.629355133780845e-13 2.8514340757078654e-10  0.
-1.9905488795350254e-12 2.8289051726652276e-10  0.
-4.42968400272781e-12 2.7756044140284405e-10  0.
-8.502925484186725e-12 2.667155824290654e-10  0.
-1.4421917480377407e-11 2.4735708438962183e-10  0.
-2.1856367127703293e-11 2.1674983059709293e-10  0.
-3.221561228771882e-11 1.7573392695682947e-10  0.
-9.900946931770125e-11 1.8398440613782022e-10  0.
0.0 2.868268851059064e-09  0.
-1.6789961422314548e-21 2.8682688510464258e-09  0.
-5.79621299199752e-22 2.8682688510515642e-09  0.
3.7346907351049424e-23 2.8682688510510456e-09  0.
-7.377049021503109e-22 2.868268851050571e-09  0.
-5.671913358350427e-20 2.8682688510273344e-09  0.
-1.3072911283724272e-18 2.868268850462694e-09  0.
-2.3812910507998275e-17 2.868268839216333e-09  0.
-3.6104674243691284e-16 2.868268651921966e-09  0.
-4.406609587868457e-15 2.8682661112635034e-09  0.
-4.192072487456421e-14 2.8682388910471356e-09  0.
-2.9893396009763383e-13 2.8680179061313046e-09  0.
-1.537348814874754e-12 2.866706910498345e-09  0.
-5.65101556172461e-12 2.8613202604773706e-09  0.
-1.6635412627248934e-11 2.844039893925451e-09  0.
-3.985049296974544e-11 2.7993035662879716e-09  0.
-8.150936801190595e-11 2.7017237022766918e-09  0.
-1.438920842939246e-10 2.518721034746265e-09  0.
-2.2560033028602031e-10 2.2190189297053207e-09  0.
-3.424768774314799e-10 1.8119634522988643e-09  0.
-1.037040344872532e-09 1.915326248388878e-09  0.
0.0 2.2885084617167935e-08  0.
-5.631225497816489e-21 2.2885084617158283e-08  0.
2.1404214450841368e-21 2.2885084617154942e-08  0.
-3.604380809748681e-22 2.2885084617155398e-08  0.
-1.8813053145587064e-21 2.2885084617153976e-08  0.
-1.231620551347285e-19 2.2885084617110264e-08  0.
-2.888963282929459e-18 2.288508461602397e-08  0.
-5.6704892574389e-17 2.2885084592782204e-08  0.
-9.35225556634321e-16 2.288508417296711e-08  0.
-1.2650000897076134e-14 2.288507789547051e-08  0.
-1.3674426747532964e-13 2.288500204183699e-08  0.
-1.1442191687926599e-12 2.288428285409328e-08  0.
-7.1470015762352806e-12 2.2879138458856204e-08  0.
-3.232704759066505e-11 2.2852237014768375e-08  0.
-1.0706355845970043e-10 2.2752403656467614e-08  0.
-2.850374275331398e-10 2.2461497411416325e-08  0.
-6.206144798824408e-10 2.17747753117537e-08  0.
-1.1551363450527271e-09 2.0408810164915535e-08  0.
-1.871048881424146e-09 1.808488864304452e-08  0.
-2.9467543409190447e-09 1.4899041837622917e-08  0.
-8.699587521050249e-09 1.594586730771671e-08  0.
0.0 1.4118070714415727e-07  0.
-6.659722505489551e-21 1.411807071441628e-07  0.
1.6014875161706555e-21 1.411807071441571e-07  0.
-2.252279223032909e-22 1.411807071441559e-07  0.
-4.624087757181474e-21 1.4118070714415476e-07  0.
-2.360632504750376e-19 1.4118070714408313e-07  0.
-5.7207347812790316e-18 1.411807071422259e-07  0.
-1.190807450264192e-16 1.4118070710024476e-07  0.
-2.1001128932680156e-15 1.4118070629240701e-07  0.
-3.079083517375538e-14 1.4118069325802362e-07  0.
-3.672492864341136e-13 1.4118052038755927e-07  0.
-3.4703493652704194e-12 1.411786821461619e-07  0.
-2.5165674962048834e-11 1.411634754665046e-07  0.
-1.3550739450017566e-10 1.4106914036261865e-07  0.
-5.311861767924944e-10 1.406415032480191e-07  0.
-1.5645410609283533e-09 1.392282342836066e-07  0.
-3.713127110976483e-09 1.3554215332008878e-07  0.
-7.260846631644437e-09 1.2772324027202652e-07  0.
-1.2261690252535221e-08 1.1386345133830743e-07  0.
-2.003012484703956e-08 9.489024202209777e-08  0.
-5.6944482341494156e-08 1.0330741596694723e-07  0.
0.0 6.490968822169468e-07  0.
-2.9681400404564755e-21 6.490968822169558e-07  0.
8.4239822539933e-22 6.49096882216952e-07  0.
-2.0132993967571612e-22 6.490968822169551e-07  0.
-1.0400013490498122e-20 6.490968822169495e-07  0.
-4.0645305002295897e-19 6.49096882216849e-07  0.
-1.0231812586676701e-17 6.490968822140139e-07  0.
-2.2296211363409034e-16 6.490968821474792e-07  0.
-4.147945690064077e-15 6.490968808009935e-07  0.
-6.47994257677389e-14 6.490968577361401e-07  0.
-8.343227499323491e-13 6.490965289465182e-07  0.
-8.653073081722246e-12 6.490927110810824e-07  0.
-7.032650174957156e-11 6.49057519993634e-07  0.
-4.3380659634897695e-10 6.488080392242277e-07  0.
-1.9736469832877157e-09 6.474931831861217e-07  0.
-6.585868627596881e-09 6.424366297670511e-07  0.
-1.6960152286425564e-08 6.278439961220875e-07  0.
-3.526921675691535e-08 5.945188545042826e-07  0.
-6.184503347806346e-08 5.332153250325869e-07  0.
-1.0532302344745781e-07 4.515296388412356e-07  0.
-2.810345562325385e-07 5.033522661289508e-07  0.
0.0 2.1273698248107536e-06  0.
-7.739105508693959e-22 2.1273698248107503e-06  0.
2.336630385033576e-21 2.127369824810758e-06  0.
1.5403008528668007e-22 2.1273698248107553e-06  0.
-1.831633954382929e-20 2.1273698248107524e-06  0.
-6.386741684162881e-19 2.1273698248106118e-06  0.
-1.6584460492600135e-17 2.1273698248068408e-06  0.
-3.748695981903155e-16 2.1273698247145603e-06  0.
-7.274340314981772e-15 2.1273698227715485e-06  0.
-1.1943207867390498e-13 2.1273697878853247e-06  0.
-1.6315964726551318e-12 2.1273692620246676e-06  0.
-1.8175605777122096e-11 2.1273627281043507e-06  0.
-1.6107180327246994e-10 2.127297355163793e-06  0.
-1.1028483291459019e-09 2.126784935874442e-06  0.
-5.64949909883923e-09 2.123743744395478e-06  0.
-2.1166708814200716e-08 2.1105030707943757e-06  0.
-5.885663831838113e-08 2.068559389435272e-06  0.
-1.298751163395783e-07 1.9662315102853693e-06  0.
-2.3643916005456614e-07 1.7735711910628615e-06  0.
-4.1807847506647824e-07 1.5385848535892272e-06  0.
-1.0064115469579049e-06 1.773088331112597e-06  0.
0.0 4.774351160959429e-06  0.
-3.7618093865233256e-21 4.774351160959416e-06  0.
3.498502194422889e-21 4.774351160959414e-06  0.
1.752696930942123e-21 4.774351160959423e-06  0.
-2.736944947056555e-20 4.774351160959419e-06  0.
-9.19283182685769e-19 4.774351160959261e-06  0.
-2.4439129844027225e-17 4.774351160954846e-06  0.
-5.684646358625376e-16 4.774351160844284e-06  0.
-1.1396841677061482e-14 4.774351158441815e-06  0.
-1.944010890029847e-13 4.774351113707699e-06  0.
-2.7785845791881337e-12 4.7743504096208925e-06  0.
-3.2671090114973256e-11 4.774341201644e-06  0.
-3.0903015627035016e-10 4.7742431258686615e-06  0.
-2.288160136481126e-09 4.77341451443424e-06  0.
-1.284766742262346e-08 4.768027143973652e-06  0.
-5.2968792079022545e-08 4.742092587751317e-06  0.
-1.5832855526456996e-07 4.6525918331197896e-06  0.
-3.600796662120654e-07 4.430407063616472e-06  0.
-6.836455988036369e-07 4.019156604996774e-06  0.
-1.2285736694119863e-06 3.6293907573204886e-06  0.
-2.5239085157528905e-06 4.3583910581388135e-06  0.
0.0 7.468380196337909e-06  0.
-5.190820285131296e-21 7.468380196337923e-06  0.
2.6868494672380303e-21 7.468380196337924e-06  0.
1.2536126385331228e-21 7.4683801963379205e-06  0.
-3.688322013819263e-20 7.468380196337914e-06  0.
-1.2119716111001953e-18 7.468380196337766e-06  0.
-3.288255984242625e-17 7.468380196333375e-06  0.
-7.811929171523309e-16 7.468380196220799e-06  0.
-1.6047245869745306e-14 7.4683801937168965e-06  0.
-2.815863475511741e-13 7.468380145801225e-06  0.
-4.1610578730790306e-12 7.4683793672553564e-06  0.
-5.090377552595916e-11 7.468368788095923e-06  0.
-5.049200339643262e-10 7.468250885603093e-06  0.
-3.958864973136485e-09 7.467197081815015e-06  0.
-2.3787776492829023e-08 7.4598725782986475e-06  0.
-1.0574865766066877e-07 7.421678577661735e-06  0.
-3.375114099218143e-07 7.2794019312950805e-06  0.
-7.83548580390148e-07 6.9215531859901526e-06  0.
-1.49593885061168e-06 6.351694503489783e-06  0.
-2.667733585981796e-06 6.132813226694704e-06  0.
-4.3793366981813435e-06 7.520610492450168e-06  0.
0.0 9.618002387942371e-06  0.
-1.94649092362538e-21 9.61800238794238e-06  0.
1.0366663270108477e-21 9.618002387942374e-06  0.
4.817264794348544e-22 9.618002387942385e-06  0.
-4.536066611029384e-20 9.618002387942374e-06  0.
-1.4751576304088084e-18 9.618002387942254e-06  0.
-4.0556864669137855e-17 9.618002387938646e-06  0.
-9.779401687368239e-16 9.61800238784517e-06  0.
-2.043046687338412e-14 9.618002385732645e-06  0.
-3.655878187837977e-13 9.618002344555251e-06  0.
-5.527753936731416e-12 9.61800166069398e-06  0.
-6.948680758993603e-11 9.617992127974894e-06  0.
-7.12044312572622e-10 9.617882481383234e-06  0.
-5.806358752490299e-09 9.616865090461908e-06  0.
-3.657716490853877e-08 9.609444281073598e-06  0.
-1.7179747695451666e-07 9.568473058534062e-06  0.
-5.796341326664082e-07 9.405966855381541e-06  0.
-1.3845929636023794e-06 8.98767645462997e-06  0.
-2.5530810494647563e-06 8.48235005769932e-06  0.
-4.243528865413014e-06 8.792070913662368e-06  0.
-5.608381726062816e-06 1.0202735001911132e-05  0.
0.0 1.2079114568739807e-05  0.
-8.295699887999012e-22 1.2079114568739816e-05  0.
3.1236939458959116e-21 1.2079114568739818e-05  0.
2.7676917340590775e-21 1.2079114568739811e-05  0.
-4.8744712468087925e-20 1.2079114568739811e-05  0.
-1.66145735481429e-18 1.2079114568739745e-05  0.
-4.5971991383572674e-17 1.207911456873771e-05  0.
-1.1180890738254652e-15 1.2079114568684467e-05  0.
-2.3591516679395302e-14 1.2079114567469732e-05  0.
-4.270350937366984e-13 1.2079114543526766e-05  0.
-6.544323326621355e-12 1.2079114140794409e-05  0.
-8.358420382143178e-11 1.2079108438941546e-05  0.
-8.729726446992529e-10 1.2079041669329707e-05  0.
-7.2844433508601495e-09 1.2078407539408005e-05  0.
-4.720059722714895e-08 1.2073653108809934e-05  0.
-2.294327532928753e-07 1.2046408858287403e-05  0.
-8.051791427116277e-07 1.1933694664406636e-05  0.
-1.979267061034998e-06 1.163998637570265e-05  0.
-3.4764926844811696e-06 1.137248974103606e-05  0.
-4.985552872095524e-06 1.188561162932933e-05  0.
-6.303873014808516e-06 1.2547127878911941e-05  0.
0.0 1.4450000000000043e-05  0.
1.5498859711977428e-21 1.4450000000000043e-05  0.
3.9678425997683425e-21 1.4450000000000043e-05  0.
4.443531257233444e-21 1.4450000000000043e-05  0.
-4.998766308446888e-20 1.4450000000000043e-05  0.
-1.7240821792814515e-18 1.4450000000000043e-05  0.
-4.793385183141348e-17 1.4450000000000043e-05  0.
-1.1689450579721205e-15 1.4450000000000043e-05  0.
-2.4745692907628797e-14 1.4450000000000043e-05  0.
-4.4963180963292814e-13 1.4450000000000043e-05  0.
-6.921207329021029e-12 1.4450000000000043e-05  0.
-8.886288180188621e-11 1.4450000000000043e-05  0.
-9.339234620785114e-10 1.4450000000000043e-05  0.
-7.852768189021058e-09 1.4450000000000043e-05  0.
-5.136080220254435e-08 1.4450000000000043e-05  0.
-2.5262994493459785e-07 1.4450000000000043e-05  0.
-8.995217589278174e-07 1.4450000000000043e-05  0.
-2.2375206055842565e-06 1.4450000000000043e-05  0.
-3.840769558109081e-06 1.4450000000000043e-05  0.
-5.0216668404082e-06 1.4450000000000043e-05  0.
-6.648743140063427e-06 1.4450000000000043e-05  0.
</DataArray>
<DataArray type="Float64" Name="sigma_xx" NumberOfComponents="1" format="ascii" >
0.0 
0.0 
0.0 
0.0 
0.0 
0.0 
0.0 
0.0 
0.0 
0.0 
0.0 
0.0 
0.0 
0.0 
0.0 
0.0 
0.0 
0.0 
0.0 
0.0 
0.0 
0.0 
0.0 
0.0 
0.0 
0.0 
0.0 
0.0 
0.0 
0.0 
0.0 
0.0 
0.0 
0.0 
0.0 
0.0 
0.0 
0.0 
0.0 
0.0 
0.0 
0.0 
6.217248937900875e-07 
6.217248937900875e-07 
6.217248937900875e-07 
6.217248937900875e-07 
6.217248937900875e-07 
6.217248937900875e-07 
6.217248937900875e-07 
6.217248937900875e-07 
6.217248937900875e-07 
6.217248937900875e-07 
6.217248937900875e-07 
6.217248937900875e-07 
6.217248937900875e-07 
5.440092820663265e-07 
3.885780586188047e-07 
3.108624468950437e-07 
3.108624468950437e-07 
3.108624468950437e-07 
3.108624468950437e-07 
2.3869795029440855e-07 
1.6653345369377343e-07 
1.927347170749271e-05 
1.927347170749271e-05 
1.927347170749271e-05 
1.927347170749271e-05 
1.927347170749271e-05 
1.927347170749271e-05 
1.927347170749271e-05 
1.927347170749271e-05 
1.927347170749271e-05 
1.927347170749271e-05 
1.927347170749271e-05 
1.927347170749271e-05 
1.9123591599168315e-05 
1.881272915227327e-05 
1.8118839761882548e-05 
1.7119639039719907e-05 
1.610378497218789e-05 
1.4399592629388274e-05 
1.2306822227969857e-05 
8.937295348232507e-06 
6.505906924303414e-06 
0.0005206945985491982 
0.0005206945985491982 
0.0005206945985491982 
0.0005206945985491982 
0.0005206945985491982 
0.0005206945985491982 
0.0005206945985491982 
0.0005206945985491982 
0.0005206168829374744 
0.0005203892872174263 
0.0005197897667841287 
0.0005184186413487166 
0.0005151323811958262 
0.0005086153720412765 
0.0004968414568651267 
0.00047693515803359766 
0.00044628745143882026 
0.0004020117572167691 
0.00034191538489380935 
0.00024444335444684373 
0.00018115509092808668 
0.012295386930816218 
0.012295386930816218 
0.012295386930816218 
0.012295386930816218 
0.012295386930816218 
0.012295386930816218 
0.012295386930816218 
0.012295164886211293 
0.012294038009841298 
0.012290496398392744 
0.012279771643974865 
0.012251449854616677 
0.012186318620877042 
0.012051193376549914 
0.011796774668226814 
0.011358036733355444 
0.010660144988960948 
0.009632472597331795 
0.008210815360953912 
0.0058743176989395325 
0.004355149574308824 
0.2513386609948042 
0.2513386609948042 
0.2513386609948042 
0.2513386609948042 
0.2513386609948042 
0.2513386609948042 
0.25133836678570265 
0.2513361463396534 
0.25132437242447725 
0.25127679381675694 
0.25111928647625337 
0.25067290465585745 
0.24957531596925253 
0.24717751734293347 
0.24247096552798542 
0.23407711324807667 
0.22037461300250522 
0.19976148513123343 
0.17073829572389337 
0.12221362810649333 
0.09048740645667402 
4.3972240737488715 
4.3972240737488715 
4.397224151464483 
4.397224229180095 
4.397224229180095 
4.397224157015598 
4.397222469476601 
4.397207725714834 
4.39710612920585 
4.396616343216307 
4.394750080516372 
4.388944441213736 
4.373497902721011 
4.337721432046136 
4.264056818747973 
4.1277341045198295 
3.8984993400159578 
3.545595500531461 
3.039010953997944 
2.175706254048392 
1.6079882980690732 
64.95394060390677 
64.95394060390677 
64.953940759338 
64.95394083705361 
64.953940759338 
64.9539402486354 
64.95393388705747 
64.95386225546793 
64.95324257893562 
64.94935166911905 
64.93208167812622 
64.87087623741058 
64.69312506807154 
64.25056059411457 
63.290017493500244 
61.43497818245078 
58.213516679339584 
53.12581961014472 
45.66632385016865 
32.684365849910954 
24.089086064771323 
797.0469221296736 
797.0469221296736 
797.0469222073891 
797.0469222073891 
797.0469221296736 
797.0469206752814 
797.0468993701016 
797.046622175168 
797.0437795934424 
797.0217803965339 
796.8977462080582 
796.3931814791711 
794.7430559152033 
790.2996174480311 
780.0135572472163 
759.2192195926548 
721.7651306623549 
660.9911962357493 
569.7919926550552 
407.37316887307065 
299.13216831878293 
7965.9658439146215 
7965.965843914622 
7965.965843914622 
7965.965843914622 
7965.965843842458 
7965.965840361909 
7965.965779360704 
7965.964891348818 
7965.954512334502 
7965.860067576933 
7965.213584398831 
7961.97471721882 
7950.01132130879 
7914.248017804046 
7825.70174550634 
7636.654848827692 
7283.198738547433 
6692.560653714929 
5784.213408477343 
4125.835826057631 
3011.645702183373 
63277.92121303408 
63277.92121303408 
63277.92121303408 
63277.92121295637 
63277.921212589994 
63277.92120447426 
63277.92105148554 
63277.91862658082 
63277.88722234604 
63277.56338160849 
63274.982574074136 
63259.57394323065 
63191.88265386519 
62967.53532405161 
62361.95458768633 
60998.15006234686 
58339.453812428204 
53772.715973571234 
46566.90240313065 
33067.155809732285 
23937.17882885892 
387315.1318969369 
387315.1318969369 
387315.1318969369 
387315.13189685915 
387315.13189620967 
387315.13187933987 
387315.13153978926 
387315.12577953585 
387315.0448434225 
387314.1242309695 
387305.8660936733 
387249.1585245079 
386959.0205476807 
385859.87872930255 
382642.81791279814 
374929.9155531764 
359354.1628162221 
331907.0323835964 
287610.7737571492 
202563.52111477352 
144587.00947329588 
1754154.5568260145 
1754154.5568260145 
1754154.5568260145 
1754154.5568260145 
1754154.5568247936 
1754154.5567928748 
1754154.5561199686 
1754154.544044639 
1754154.3629260797 
1754152.1364762662 
1754130.2262043 
1753962.3087084726 
1752989.509740965 
1748822.0854878994 
1735503.2849753145 
1701851.4820872792 
1631834.116854452 
1507030.0632788073 
1302637.5293684467 
903584.1548005792 
630460.934151011 
5568170.684721062 
5568170.684721062 
5568170.684721062 
5568170.684721062 
5568170.684718747 
5568170.684663707 
5568170.683461575 
5568170.660897352 
5568170.304311275 
5568165.643026827 
5568116.309275759 
5567704.364722576 
5565070.441374191 
5552560.6917747315 
5509107.367653066 
5395503.556616011 
5156202.228475771 
4736023.687483269 
4052803.9057247485 
2728283.0905966433 
1825711.5942930323 
11576449.023521947 
11576449.023521869 
11576449.023521792 
11576449.02352187 
11576449.023518473 
11576449.023432279 
11576449.021487169 
11576448.983648771 
11576448.360456828 
11576439.811151274 
11576344.049068656 
11575489.324418098 
11569588.05919572 
11539127.427559912 
11425316.216283005 
11119570.56744321 
10494753.356172236 
9447416.199564936 
7841164.641577696 
4933880.231312427 
2993066.70506421 
14994769.08766097 
14994769.087660892 
14994769.087660816 
14994769.08766082 
14994769.087656204 
14994769.087532833 
14994769.08466949 
14994769.027399648 
14994768.05346246 
14994754.185873715 
14994591.94787798 
14993068.318695853 
14981910.397064965 
14920449.72938257 
14676321.619951924 
14002666.976721883 
12699218.58352478 
10724359.862406192 
8050282.440589354 
4182580.9302130165 
1836342.8945179365 
13595483.705980688 
13595483.705980767 
13595483.705980845 
13595483.705980627 
13595483.705974495 
13595483.7058118 
13595483.701959843 
13595483.623294663 
13595482.253071584 
13595462.194609838 
13595219.835021585 
13592856.36530989 
13574774.831186656 
13470163.076105341 
13033773.792497795 
11795868.325810505 
9519539.155968413 
6609446.035170093 
3356430.7846952276 
658235.288802847 
-310895.18494082056 
12939954.499177836 
12939954.499177914 
12939954.499177992 
12939954.499177704 
12939954.499170277 
12939954.498972097 
12939954.49422113 
12939954.395775095 
12939952.652207732 
12939926.633377187 
12939605.16553848 
12936387.600400558 
12911015.259040132 
12759069.31953952 
12101839.495617174 
10188478.538998645 
6783686.4012192935 
3316018.6623171275 
631589.6249305985 
-201412.54680120735 
201513.520445826 
13562292.192266297 
13562292.192266297 
13562292.192266297 
13562292.192266008 
13562292.192257794 
13562292.192034781 
13562292.186650783 
13562292.074127637 
13562290.0615814 
13562259.687557455 
13561879.45896996 
13558015.190483144 
13526994.988138653 
13337372.662463756 
12498560.060500167 
10009684.223332351 
5641450.705306034 
2082844.5664344863 
1058563.4736410421 
166780.25600035163 
-703272.35695802 
13308436.562335087 
13308436.562335087 
13308436.562335087 
13308436.562334798 
13308436.562326293 
13308436.562094279 
13308436.556481669 
13308436.438847866 
13308434.328063717 
13308402.352314403 