<?xml version="1.0"?>
<VTKFile type="UnstructuredGrid" version="0.1" byte_order="LittleEndian" compressor="vtkZLibDataCompressor">
<UnstructuredGrid>
<Piece NumberOfPoints="441" NumberOfCells="400">
<PointData>
<DataArray type="Float64" Name="displacement" NumberOfComponents="3" format="ascii" >
0.0 3.136701556137902e-48  0.
9.416605210409564e-49 -2.194628593116586e-48  0.
1.0155736874828582e-48 2.2684108276896268e-48  0.
-8.62932354175336e-49 -4.1452627161703245e-48  0.
-1.4055349349680325e-47 -9.040025049070351e-48  0.
-9.681836327644504e-47 -7.370022013924276e-47  0.
-4.18553741294285e-46 -2.4795230946782453e-46  0.
-1.6169096966649326e-45 -9.501925875234756e-46  0.
-5.3119060126249024e-45 -2.7443288523742578e-45  0.
-1.515859632232226e-44 -7.101482738399869e-45  0.
-3.794758943563483e-44 -1.568621285643341e-44  0.
-8.306334324387167e-44 -2.9428385692148444e-44  0.
-1.6098695287356402e-43 -4.849384725733109e-44  0.
-2.7577437113301834e-43 -6.629624112372366e-44  0.
-4.1990334004550875e-43 -7.783271644065192e-44  0.
-5.662848809080338e-43 -6.856395758365877e-44  0.
-6.73144473006518e-43 -3.8252402310345536e-44  0.
-6.935516610752233e-43 1.7462375578538518e-44  0.
-5.977443063774774e-43 8.150416502255147e-44  0.
-3.648400231461044e-43 1.2432162631696704e-43  0.
-2.0988980494016346e-43 2.647895924177858e-43  0.
0.0 -3.587215538457451e-45  0.
-2.1102641497565435e-45 1.4783745819862688e-45  0.
-3.09600116815297e-45 -2.4652112486636876e-45  0.
-4.1966164087646226e-45 1.3640037812337196e-45  0.
-6.696540474014537e-45 -3.8780618114214456e-45  0.
-2.1803608160607057e-44 -1.131127268779065e-44  0.
-1.2694592411425226e-43 -9.415289910305455e-44  0.
-5.1289787865786554e-43 -2.929967067942084e-43  0.
-1.9125367452695327e-42 -1.110340903823461e-42  0.
-6.056959833156264e-42 -3.043919347066354e-42  0.
-1.6526568866035317e-41 -7.448451826894777e-42  0.
-3.9451390233001844e-41 -1.5521760730862435e-41  0.
-8.157686876788837e-41 -2.6680565753174044e-41  0.
-1.4852079279328616e-40 -4.0380771803139017e-41  0.
-2.3666470342024065e-40 -4.790250997468111e-41  0.
-3.3177384737432228e-40 -4.736233233327245e-41  0.
-4.058055498278595e-40 -2.673963048158484e-41  0.
-4.27023690514811e-40 5.2503728491299486e-42  0.
-3.737823553249681e-40 5.013579441147876e-41  0.
-2.295780441803836e-40 7.703252476763453e-41  0.
-1.3319525824584444e-40 1.6835069301461253e-40  0.
0.0 7.78231993592345e-43  0.
-4.966771458545871e-42 -5.746711238965705e-42  0.
-8.434044657745632e-42 2.2714922326447267e-42  0.
-8.072945485971172e-42 -1.906376516220372e-42  0.
-8.41083202310989e-42 1.559254107595331e-42  0.
-1.3916632993724702e-41 -7.09339435435542e-42  0.
-4.682835813364197e-41 -2.6029303360389103e-41  0.
-2.8608139064360487e-40 -2.1399671100355682e-40  0.
-1.0977029984559976e-39 -6.004367800811764e-40  0.
-3.932782426440682e-39 -2.2428968080432232e-39  0.
-1.1887147051485746e-38 -5.7324863800995074e-39  0.
-3.083157148385525e-38 -1.3258210300162523e-38  0.
-7.011554100238614e-38 -2.610780007728258e-38  0.
-1.370032708334148e-37 -4.091994691657346e-38  0.
-2.3469958384737982e-37 -5.694413180415485e-38  0.
-3.4718627453310598e-37 -5.574242608799012e-38  0.
-4.449057779400517e-37 -4.2083721842901106e-38  0.
-4.8425636385679674e-37 2.364726660023434e-39  0.
-4.335126584314633e-37 5.100700147563822e-38  0.
-2.7060529285416533e-37 9.124296023130635e-38  0.
-1.5617819814745906e-37 1.9853584252891374e-37  0.
0.0 -8.356740138969242e-39  0.
-8.241896644432788e-39 1.1667370995235444e-40  0.
-1.2132231421758805e-38 -4.040942189094579e-39  0.
-1.242380798668811e-38 3.776150498699107e-39  0.
-8.30410851880649e-39 3.2718973518658653e-40  0.
-8.976211268755737e-39 -1.004239211485238e-39  0.
-2.415988362984737e-38 -1.424622634521393e-38  0.
-9.098401866756378e-38 -5.30604494913274e-38  0.
-5.56071828790716e-37 -4.136553556746773e-37  0.
-1.9962404751274076e-36 -1.0321087573376283e-36  0.
-6.879861693221527e-36 -3.867697271465867e-36  0.
-1.9702630833905862e-35 -8.993242590957885e-36  0.
-4.881294222136941e-35 -2.019168920464763e-35  0.
-1.0707625081307423e-34 -3.821729858299721e-35  0.
-1.997021470166782e-34 -5.459744467253663e-35  0.
-3.248038220079059e-34 -7.069203267294308e-35  0.
-4.448902004493595e-34 -4.964017346667745e-35  0.
-5.1238119290591475e-34 -1.8297734476993487e-35  0.
-4.772466350373882e-34 5.681224560645288e-35  0.
-3.0101180041585916e-34 9.554578724795284e-35  0.
-1.7980976622166663e-34 2.2731470882237688e-34  0.
0.0 -5.163693545805044e-36  0.
-9.993999079985544e-36 -4.8042569936351185e-36  0.
-1.4571448069366737e-35 1.2469131222856048e-37  0.
-1.3042199419503245e-35 1.4883259040298822e-36  0.
-8.035008018448383e-36 3.482967232427395e-36  0.
-3.5724833243586403e-36 9.918226949011204e-37  0.
-1.0693718604198586e-35 -8.144018909656332e-36  0.
-4.4670109008354776e-35 -2.5978658575481626e-35  0.
-1.642768664842519e-34 -9.451926661881625e-35  0.
-9.454567262537727e-34 -6.89624820022429e-34  0.
-3.1379547634065206e-33 -1.512820761159997e-33  0.
-1.0653802871414148e-32 -6.029463015266275e-33  0.
-2.8683878124331273e-32 -1.2050155877242803e-32  0.
-6.862517661717204e-32 -2.803737151313788e-32  0.
-1.4788112266109868e-31 -5.138132342248935e-32  0.
-2.6370841500750523e-31 -6.4532166340383e-32  0.
-4.050522462543542e-31 -7.755358309168918e-32  0.
-5.015566770168144e-31 -1.9124180271540924e-32  0.
-4.9164031104579615e-31 3.3626672874451944e-32  0.
-3.1814845590341176e-31 1.1030404433608712e-31  0.
-1.8096257048411934e-31 2.3421982428623903e-31  0.
0.0 9.476514594449997e-33  0.
-3.717232899866563e-33 -1.3406308985439833e-32  0.
-1.037523016885596e-32 7.040991982543912e-33  0.
-6.321580468888099e-33 -3.0793387450672943e-33  0.
-5.840275444523915e-33 3.538347619252853e-33  0.
-1.1078588960826999e-33 1.2217965884451544e-33  0.
-4.9713880400451465e-34 -6.259654112825082e-34  0.
-2.2000539768331545e-32 -2.0972256966804872e-32  0.
-8.853832229899511e-32 -4.548644314467557e-32  0.
-2.795791883113049e-31 -1.4823886197128522e-31  0.
-1.539803198747491e-30 -1.1121533189972556e-30  0.
-4.6809620753857e-30 -2.049109897419611e-30  0.
-1.58727771163707e-29 -9.152873689846914e-30  0.
-3.9089398851701526e-29 -1.422332105643349e-29  0.
-9.234544302920253e-29 -3.9033537417016023e-29  0.
-2.0508592470046618e-28 -7.513581880001303e-29  0.
-3.4213960035155175e-28 -6.096733440281229e-29  0.
-4.681720601221495e-28 -6.377760171981086e-29  0.
-4.762340455137691e-28 5.951864294801607e-29  0.
-2.9569783765349606e-28 8.433770572176657e-29  0.
-1.8900725329525436e-28 2.436213428286075e-28  0.
0.0 -3.923084221775399e-29  0.
3.4624196249527134e-29 6.658341122406233e-29  0.
3.645400254295173e-29 -5.40549481698514e-29  0.
-8.235385936671697e-30 6.052930257376074e-30  0.
-9.895130061262529e-31 1.0637207064319363e-30  0.
3.2785355523752445e-32 -2.8853838438603397e-32  0.
-1.227906496525365e-33 -3.9230700192730524e-33  0.
-6.08177963137028e-31 -6.465955267251799e-31  0.
-6.160621432390368e-29 -5.998203439935638e-29  0.
-2.295289129324777e-28 -1.1909369893241814e-28  0.
-5.311506716650077e-28 -1.5923327935538946e-28  0.
-2.3494764004774435e-27 -1.7248790155748127e-27  0.
-6.538644124451394e-27 -2.487747655354548e-27  0.
-2.074872362211813e-26 -1.1999581494434569e-26  0.
-4.6342601235966425e-26 -1.349959278371991e-26  0.
-1.3081625699762848e-25 -7.323107574171326e-26  0.
-4.341961692691194e-25 -1.6329150025910264e-25  0.
-5.311592130158074e-25 7.00166351608447e-26  0.
-4.574270525074438e-25 -3.404646314312737e-26  0.
-3.471792816764818e-25 9.628386831882507e-26  0.
-2.244565283897081e-25 2.6863859061114097e-25  0.
0.0 2.134945992193905e-21  0.
2.4082626182514105e-25 2.1344405738229206e-21  0.
-7.018795642592732e-27 2.1346200450480505e-21  0.
-5.69263406669907e-28 2.134614278560997e-21  0.
1.2452968624953194e-29 2.134613671156823e-21  0.
3.094765804229645e-31 2.134613680601083e-21  0.
-9.325494468129436e-33 2.1346136809331257e-21  0.
-2.3069950032053778e-30 2.1346136774385656e-21  0.
-5.123920847864546e-28 2.134613058137371e-21  0.
-1.5433283017932176e-25 2.1344528906132323e-21  0.
-6.771108770904995e-25 2.134432179024058e-21  0.
-6.941461641165839e-25 2.134687988376482e-21  0.
-2.474112122654788e-24 2.1329608897308544e-21  0.
-6.5558551233900814e-24 2.132717922081449e-21  0.
-1.9201026944964517e-23 2.125878396502802e-21  0.
-6.455688675474814e-23 2.106685570920708e-21  0.
-1.951095996673918e-22 1.8634724306031246e-21  0.
-2.1187281835896485e-22 1.2278374373888888e-21  0.
-2.1261571873482443e-22 1.0978027497860235e-21  0.
-2.518964182279505e-22 5.735129924364392e-22  0.
-4.631466424350744e-22 6.839293495000886e-22  0.
0.0 3.162472227427545e-19  0.
-4.0106160816152486e-24 3.1670067986785016e-19  0.
-1.762132608982016e-25 3.1669925403123754e-19  0.
3.1282759374532848e-27 3.166990462998495e-19  0.
8.83288678932818e-29 3.166990478322283e-19  0.
1.5726567779765889e-30 3.166990479365959e-19  0.
-2.5223658516661634e-32 3.166990479386832e-19  0.
-2.554846239589805e-29 3.1669904790755506e-19  0.
-6.2471033296540934e-27 3.1669904038726836e-19  0.
-3.4980576074895285e-25 3.166983088390594e-19  0.
-1.6770566010845268e-22 3.1656649905807316e-19  0.
-1.2390182689784663e-22 3.160349581304795e-19  0.
-3.2393838716245895e-22 3.1532785492594286e-19  0.
-9.54694894086081e-22 3.1401287645918356e-19  0.
-2.4445371829016263e-21 3.113488816760027e-19  0.
-5.606017520733503e-21 3.0251866258899934e-19  0.
-9.545800767048116e-21 2.875230174432891e-19  0.
-1.4520990097693084e-20 2.6414995232016963e-19  0.
-2.097788274738703e-20 2.2790133644676525e-19  0.
-2.8376393463027097e-20 1.8451142331058762e-19  0.
-9.60839516485002e-20 1.861964686785052e-19  0.
0.0 1.8487286271446066e-17  0.
-2.906593648977371e-23 1.8486366145721852e-17  0.
4.221128597385095e-25 1.8486336522359176e-17  0.
1.593509815499927e-26 1.8486336624125567e-17  0.
2.9383161248130338e-28 1.8486336644010415e-17  0.
3.381157393547249e-30 1.8486336644482505e-17  0.
-2.969306472143098e-31 1.848633664448917e-17  0.
-7.621551439859661e-29 1.8486336644356475e-17  0.
-2.971179745519481e-26 1.8486336598268004e-17  0.
-5.476571833674966e-23 1.848629217922234e-17  0.
-6.225296387221044e-22 1.8485552633995216e-17  0.
-3.493529325835173e-21 1.8481462773628758e-17  0.
-1.5685535114750892e-20 1.8463221172439268e-17  0.
-4.754697792371969e-20 1.840180460870976e-17  0.
-1.19220078112325e-19 1.8240939002607996e-17  0.
-2.6016358019325396e-19 1.7881744999667754e-17  0.
-4.9122021429864245e-19 1.7159211507179577e-17  0.
-8.239071435421003e-19 1.5892107173073775e-17  0.
-1.2250309575250148e-18 1.391193202950276e-17  0.
-1.7399102804732194e-18 1.1218995892907306e-17  0.
-5.954067116108582e-18 1.1462490477195267e-17  0.
0.0 9.049284650905855e-16  0.
7.334744700946317e-23 9.049270115421468e-16  0.
1.8286556992338754e-24 9.049269698531753e-16  0.
3.075874813071466e-26 9.049269717773504e-16  0.
3.558337518214331e-28 9.049269718416487e-16  0.
-1.9437923955324944e-31 9.049269718427612e-16  0.
-6.756426912483449e-31 9.049269718427689e-16  0.
-3.9774726749740115e-28 9.049269718421691e-16  0.
-1.3767509310045626e-25 9.049269716403324e-16  0.
-8.219110947150196e-23 9.049269767064774e-16  0.
-3.560039480249018e-21 9.04924579943705e-16  0.
-8.157446307148057e-20 9.048480806779148e-16  0.
-4.188275553905681e-19 9.043863197724872e-16  0.
-1.6126354472035532e-18 9.024774640657038e-16  0.
-4.5867021537486016e-18 8.966071131502517e-16  0.
-1.0987611588147907e-17 8.81776687093756e-16  0.
-2.202837640487148e-17 8.502359493105973e-16  0.
-3.875066014856003e-17 7.920398637828954e-16  0.
-5.991421398124183e-17 6.976072628760599e-16  0.
-8.726255385275958e-17 5.651061875024615e-16  0.
-3.012390422122425e-16 5.797250396627736e-16  0.
0.0 3.6621460902499804e-14  0.
1.0193708046926908e-22 3.662146453764013e-14  0.
1.3307036084893007e-24 3.662146473636089e-14  0.
4.186912730780814e-27 3.6621464741450334e-14  0.
1.0394668786125093e-29 3.662146474154855e-14  0.
4.0626003680949456e-29 3.6621464741549914e-14  0.
-3.0126613023051187e-30 3.662146474154995e-14  0.
-1.4853116726408193e-27 3.662146474154748e-14  0.
-4.789548323861058e-25 3.662146474068467e-14  0.
-2.3333825929155863e-22 3.662146442552427e-14  0.
-2.404072971792074e-20 3.6621445801976454e-14  0.
-6.015793555900577e-19 3.6620982628173277e-14  0.
-8.417962147532127e-18 3.6612927429840214e-14  0.
-3.901629825818879e-17 3.656943920331553e-14  0.
-1.392760567640087e-16 3.6403212367981055e-14  0.
-3.652440359169731e-16 3.592909881661002e-14  0.
-8.0777180929824e-16 3.482064433734619e-14  0.
-1.4906668298792216e-15 3.264139977110578e-14  0.
-2.4172042927630878e-15 2.8936181520175815e-14  0.
-3.61704343978773e-15 2.358205238328354e-14  0.
-1.2634342653375332e-14 2.4305286764733793e-14  0.
0.0 1.2012510651525345e-12  0.
-1.174275347523098e-22 1.2012510673268624e-12  0.
-3.404852303090703e-24 1.2012510675300756e-12  0.
4.498057922681789e-27 1.2012510675333332e-12  0.
3.620877023496919e-27 1.201251067533427e-12  0.
-9.105824599928916e-30 1.2012510675334314e-12  0.
-1.6381300312567607e-29 1.2012510675334314e-12  0.
-4.253910038989506e-27 1.2012510675334233e-12  0.
-2.0460431839466694e-24 1.201251067529901e-12  0.
-1.1933941992031436e-21 1.2012510667635726e-12  0.
-9.128660127333089e-20 1.2012510170121642e-12  0.
-2.754955873760814e-18 1.2012492544603436e-12  0.
-5.75343070280671e-17 1.201206038505381e-12  0.
-6.994236927847212e-16 1.2005400073906238e-12  0.
-2.9321429859503177e-15 1.1972529615515717e-12  0.
-9.599677455410695e-15 1.1856997797627706e-12  0.
-2.2947303211163435e-14 1.1554344898430576e-12  0.
-4.644243752220796e-14 1.0905316657494192e-12  0.
-7.824218050891353e-14 9.738328712418426e-13  0.
-1.2243780775001124e-13 7.992299338584314e-13  0.
-4.3031711139927724e-13 8.280491620601636e-13  0.
0.0 3.1164305276251056e-11  0.
-2.6585851924716764e-22 3.1164305273557194e-11  0.
1.3675389754943593e-25 3.116430527335182e-11  0.
5.701862878806338e-26 3.1164305273352544e-11  0.
-5.348274018877444e-27 3.116430527335272e-11  0.
2.3594663903468912e-27 3.116430527335272e-11  0.
-5.792105441007843e-28 3.116430527335272e-11  0.
-8.823727154963764e-27 3.1164305273352686e-11  0.
-4.154999598019038e-24 3.116430527334167e-11  0.
-4.084220480259257e-21 3.116430527086683e-11  0.
-2.5958817728218344e-19 3.116430514884612e-11  0.
-9.259590468649998e-18 3.116430024285176e-11  0.
-2.4514319858405975e-16 3.116414934580958e-11  0.
-4.433150595237316e-15 3.116089403384785e-11  0.
-4.6055410967297204e-14 3.111732407179703e-11  0.
-1.7269394212061875e-13 3.092265973609818e-11  0.
-5.124370945426797e-13 3.030034814269955e-11  0.
-1.1030439713504646e-12 2.8819473800051457e-11  0.
-2.0233664798359746e-12 2.594643870922311e-11  0.
-3.268816665733277e-12 2.146622243712559e-11  0.
-1.166711258857186e-11 2.2402362227580045e-11  0.
0.0 6.198437212578517e-10  0.
3.034625269650901e-22 6.198437212511155e-10  0.
-1.1675093012554962e-23 6.19843721250752e-10  0.
-6.28026580672689e-25 6.198437212507384e-10  0.
1.4244523585829507e-25 6.198437212507374e-10  0.
-1.6670883827179954e-26 6.198437212507378e-10  0.
-1.9733594042242625e-27 6.198437212507376e-10  0.
-2.395750431101525e-26 6.198437212507375e-10  0.
-4.933651751936222e-24 6.198437212507158e-10  0.
-1.0939735375753929e-20 6.198437212463672e-10  0.
-6.159008361027699e-19 6.198437210089683e-10  0.
-2.458727312861855e-17 6.198437102333351e-10  0.
-7.63902518459346e-16 6.198433270405081e-10  0.
-1.7442701846668878e-14 6.19833053984935e-10  0.
-2.6849696897854245e-13 6.196411717080331e-10  0.
-2.3299371300495717e-12 6.174561411862154e-10  0.
-7.711913025199478e-12 6.087218700222702e-10  0.
-2.0411373563487497e-11 5.837033690579892e-10  0.
-3.907802552427656e-11 5.305240220723239e-10  0.
-6.842218793727317e-11 4.431057029774257e-10  0.
-2.4275438643027154e-10 4.660442908003927e-10  0.
0.0 9.07634633282195e-09  0.
-6.829354999488162e-22 9.076346332823684e-09  0.
1.0502187335512445e-23 9.076346332823719e-09  0.
4.637967349567555e-24 9.076346332823679e-09  0.
-1.812832106432624e-24 9.076346332823686e-09  0.
9.28482314375593e-26 9.076346332823684e-09  0.
3.716297692592695e-27 9.076346332823684e-09  0.
-3.498162365374882e-27 9.076346332823682e-09  0.
-1.2942632091205112e-23 9.07634633282364e-09  0.
-2.103562885368947e-20 9.076346332817818e-09  0.
-1.2373337630902942e-18 9.076346332423808e-09  0.
-5.388498415594248e-17 9.076346313272708e-09  0.
-1.8731842597554316e-15 9.076345557837174e-09  0.
-4.9969395186947604e-14 9.076322193530152e-09  0.
-9.65858984135501e-13 9.075784156075352e-09  0.
-1.236700734110416e-11 9.067234323016146e-09  0.
-8.702910173563507e-11 8.986613853750617e-09  0.
-2.5014425687303827e-10 8.70274637631199e-09  0.
-5.79569386690659e-10 7.991971216577363e-09  0.
-1.0462201457085164e-09 6.7485464786835655e-09  0.
-3.775282683397845e-09 7.186644551221418e-09  0.
0.0 9.268864154907493e-08  0.
3.084405107124997e-23 9.26886415490786e-08  0.
-8.665137971599165e-23 9.268864154907986e-08  0.
-7.042765491249622e-23 9.268864154908007e-08  0.
1.036351210263962e-24 9.268864154908001e-08  0.
-9.004188617867478e-25 9.268864154908001e-08  0.
-1.3818770860306676e-24 9.268864154908003e-08  0.
8.459306009732267e-25 9.268864154908003e-08  0.
-2.0730159070093104e-23 9.268864154907996e-08  0.
-3.79338041588482e-20 9.268864154906886e-08  0.
-2.1548078059335238e-18 9.268864154852846e-08  0.
-9.998147979241523e-17 9.268864152064615e-08  0.
-3.7689871111516425e-15 9.268864033366988e-08  0.
-1.1188919065514729e-13 9.268859986538478e-08  0.
-2.5131622683175526e-12 9.268752825745106e-08  0.
-4.0151319648841736e-11 9.266673951619495e-08  0.
-4.1472743564759843e-10 9.239184175986838e-08  0.
-2.27646856022176e-09 9.032387903972324e-08  0.
-5.598007971088204e-09 8.40838379599541e-08  0.
-1.1976832845274905e-08 7.190448558884932e-08  0.
-4.0875706260844233e-08 7.743859874649478e-08  0.
0.0 6.130883012374072e-07  0.
8.777785165975629e-22 6.13088301237411e-07  0.
-8.577952622255864e-22 6.130883012374082e-07  0.
2.8394735675708263e-22 6.130883012374082e-07  0.
-1.6814187763869276e-24 6.130883012374085e-07  0.
2.6403529222950957e-24 6.130883012374084e-07  0.
-2.097258686180507e-22 6.130883012374078e-07  0.
2.0589043469082117e-22 6.130883012374081e-07  0.
-3.941717271192298e-22 6.130883012374076e-07  0.
-5.585162147370993e-20 6.130883012374e-07  0.
-3.2852039445924146e-18 6.130883012367865e-07  0.
-1.597154619828001e-16 6.130883012037395e-07  0.
-6.375325157873053e-15 6.130882997213661e-07  0.
-2.0386964441820274e-13 6.130882454900982e-07  0.
-5.0599394052217145e-12 6.130866753916149e-07  0.
-9.327965556281926e-11 6.13051737709543e-07  0.
-1.1937898247460297e-09 6.124942727881873e-07  0.
-9.543453309112505e-09 6.065402213293939e-07  0.
-3.912499986231511e-08 5.72978537854879e-07  0.
-8.877216654727744e-08 4.984385181676924e-07  0.
-2.977483761367507e-07 5.454050209996872e-07  0.
0.0 2.387018735284141e-06  0.
1.793493607595211e-21 2.387018735284131e-06  0.
-1.4647020477906261e-21 2.387018735284133e-06  0.
2.9035045143154256e-22 2.3870187352841335e-06  0.
4.241761004067021e-24 2.3870187352841335e-06  0.
3.4822564999604264e-24 2.3870187352841335e-06  0.
-2.0779479327691177e-22 2.3870187352841335e-06  0.
2.227791095856728e-22 2.3870187352841335e-06  0.
-8.324063345706638e-22 2.3870187352841335e-06  0.
-7.265142978698445e-20 2.3870187352841254e-06  0.
-4.419978321157886e-18 2.387018735283581e-06  0.
-2.2174363543730893e-16 2.387018735253218e-06  0.
-9.196681237631201e-15 2.3870187338407533e-06  0.
-3.0886185098652367e-13 2.387018679846869e-06  0.
-8.18044690501786e-12 2.3870170132164165e-06  0.
-1.650269588185106e-10 2.3869768934531767e-06  0.
-2.413869010938384e-09 2.386243230934353e-06  0.
-2.3777912142120232e-08 2.3769232735927415e-06  0.
-1.4048223080841016e-07 2.3015417717590905e-06  0.
-4.4450662440932617e-07 2.0544701762309793e-06  0.
-1.2620587049265501e-06 2.2374364404760617e-06  0.
0.0 5.130795420967529e-06  0.
1.2651720940734105e-21 5.130795420967534e-06  0.
-5.8123589974648e-22 5.130795420967533e-06  0.
-5.648038526136076e-23 5.1307954209675335e-06  0.
-6.649246979348297e-24 5.1307954209675335e-06  0.
-1.0929222046515021e-23 5.1307954209675335e-06  0.
9.843703816589074e-24 5.1307954209675335e-06  0.
-2.6657891580458337e-23 5.1307954209675335e-06  0.
-1.2832473459195718e-21 5.1307954209675335e-06  0.
-8.510514869861345e-20 5.1307954209675284e-06  0.
-5.2715561905585596e-18 5.130795420967203e-06  0.
-2.691122655896965e-16 5.1307954209489555e-06  0.
-1.141023919108062e-14 5.130795420082596e-06  0.
-3.94052383744412e-13 5.130795385997329e-06  0.
-1.0829566994306873e-11 5.1307942991559284e-06  0.
-2.2985063741445653e-10 5.130766649131896e-06  0.
-3.6267095990268783e-09 5.1302288494497046e-06  0.
-4.029236403925156e-08 5.122455032255423e-06  0.
-2.92943638240003e-07 5.050955317190791e-06  0.
-1.23683350233193e-06 4.73830704188385e-06  0.
-2.7950145867975354e-06 4.982176424104069e-06  0.
0.0 7.449999999999993e-06  0.
-1.56249661202065e-21 7.449999999999993e-06  0.
1.40933464711704e-22 7.449999999999993e-06  0.
-2.445700038380981e-24 7.449999999999993e-06  0.
0.0 7.449999999999993e-06  0.
0.0 7.449999999999993e-06  0.
7.924641335300878e-24 7.449999999999993e-06  0.
-4.583299193020604e-23 7.449999999999993e-06  0.
-1.7801854108470505e-21 7.449999999999993e-06  0.
-8.869034791361713e-20 7.449999999999993e-06  0.
-5.591854588857592e-18 7.449999999999993e-06  0.
-2.8688298539571057e-16 7.449999999999993e-06  0.
-1.2251593203251363e-14 7.449999999999993e-06  0.
-4.270213432877834e-13 7.449999999999993e-06  0.
-1.1875860324909227e-11 7.449999999999993e-06  0.
-2.5637944812605017e-10 7.449999999999993e-06  0.
-4.144764479203334e-09 7.449999999999993e-06  0.
-4.8038561662178204e-08 7.449999999999993e-06  0.
-3.730642323368508e-07 7.449999999999993e-06  0.
-1.7397457094540456e-06 7.449999999999993e-06  0.
-3.5878681195079073e-06 7.449999999999993e-06  0.
</DataArray>
<DataArray type="Float64" Name="sigma_xx" NumberOfComponents="1" format="ascii" >
0.0 
0.0 
0.0 
0.0 
0.0 
0.0 
0.0 
0.0 
0.0 
0.0 
0.0 
0.0 
0.0 
0.0 
0.0 
0.0 
0.0 
0.0 
0.0 
0.0 
0.0 
0.0 
0.0 
0.0 
0.0 
0.0 
0.0 
0.0 
0.0 
0.0 
0.0 
0.0 
0.0 
0.0 
0.0 
0.0 
0.0 
0.0 
0.0 
0.0 
0.0 
0.0 
0.0 
0.0 
0.0 
0.0 
0.0 
0.0 
0.0 
0.0 
0.0 
0.0 
0.0 
0.0 
0.0 
0.0 
0.0 
0.0 
0.0 
0.0 
0.0 
0.0 
0.0 
0.0 
0.0 
0.0 
0.0 
0.0 
0.0 
0.0 
0.0 
0.0 
0.0 
0.0 
0.0 
0.0 
0.0 
0.0 
0.0 
0.0 
0.0 
0.0 
0.0 
0.0 
0.0 
0.0 
0.0 
0.0 
0.0 
0.0 
0.0 
0.0 
0.0 
0.0 
0.0 
0.0 
0.0 
0.0 
0.0 
0.0 
0.0 
0.0 
0.0 
0.0 
0.0 
0.0 
0.0 
0.0 
0.0 
0.0 
0.0 
0.0 
0.0 
0.0 
0.0 
0.0 
0.0 
0.0 
0.0 
0.0 
0.0 
0.0 
0.0 
0.0 
0.0 
0.0 
0.0 
0.0 
0.0 
0.0 
0.0 
0.0 
0.0 
0.0 
0.0 
0.0 
0.0 
0.0 
0.0 
0.0 
0.0 
0.0 
0.0 
0.0 
0.0 
0.0 
0.0 
9.325873406851312e-07 
9.325873406851312e-07 
9.325873406851312e-07 
9.325873406851312e-07 
9.325873406851312e-07 
9.325873406851312e-07 
9.325873406851312e-07 
9.325873406851312e-07 
9.325873406851312e-07 
9.325873406851312e-07 
9.325873406851312e-07 
9.325873406851312e-07 
9.325873406851312e-07 
9.325873406851312e-07 
9.325873406851312e-07 
9.325873406851312e-07 
9.325873406851312e-07 
8.548717289613702e-07 
6.217248937900875e-07 
3.164135620181695e-07 
1.6653345369377343e-07 
5.19140286314723e-05 
5.19140286314723e-05 
5.19140286314723e-05 
5.19140286314723e-05 
5.19140286314723e-05 
5.19140286314723e-05 
5.19140286314723e-05 
5.19140286314723e-05 
5.19140286314723e-05 
5.19140286314723e-05 
5.19140286314723e-05 
5.19140286314723e-05 
5.17641485231479e-05 
5.1458837191375985e-05 
5.092593013955592e-05 
4.95437024738976e-05 
4.7073456244106624e-05 
4.320432900328795e-05 
3.71647157493271e-05 
2.683409050519002e-05 
2.0139445666700326e-05 
0.0025329072173008163 
0.0025329072173008163 
0.0025329072173008163 
0.0025329072173008163 
0.0025329072173008163 
0.0025329072173008163 
0.0025329072173008163 
0.0025329072173008163 
0.0025329072173008163 
0.0025329072173008163 
0.002532757337192492 
0.0025319413232693924 
0.0025284108140510844 
0.002517802633050791 
0.002490840866897769 
0.0024327762027098734 
0.002323491399280896 
0.002140565502628532 
0.0018605672558180677 
0.0013581635815995692 
0.0010232703573365138 
0.10248824011682697 
0.10248824011682697 
0.10248824011682697 
0.10248824011682697 
0.10248824011682697 
0.10248824011682697 
0.10248824011682697 
0.10248824011682697 
0.10248824011682697 
0.10248824011682697 
0.10248691340031255 
0.10246950510328642 
0.10238568881604235 
0.10207605316558951 
0.10121387061801099 
0.09919267629499015 
0.0951641432322958 
0.08809192264536134 
0.07693720660562062 
0.05633420396833341 
0.042441317127384054 
3.360969236254617 
3.360969236254617 
3.360969236254617 
3.360969236254617 
3.360969236254617 
3.360969236254617 
3.360969236254617 
3.360969236254617 
3.360969236254617 
3.3609690863745088 
3.3609627192454625 
3.360838302102208 
3.3594018955529483 
3.353070376910238 
3.33158705068115 
3.276623322667759 
3.157750316784557 
2.938921783712799 
2.5798867819837303 
1.893978124334338 
1.4286552274533895 
87.15751718124662 
87.15751718124662 
87.15751718124662 
87.15751718124662 
87.15751718124662 
87.15751718124662 
87.15751718124662 
87.15751718124662 
87.15751718124662 
87.15751652066392 
87.15749391652314 
87.15692892957702 
87.14734379688946 
87.05277954601517 
86.67872643530747 
85.52473453882212 
82.83652593865651 
77.51962155522205 
68.42927946504315 
50.3610425250933 
37.88899094470109 
1732.1998892372285 
1732.1998892372285 
1732.1998892372285 
1732.1998892372285 
1732.1998892372285 
1732.1998892372285 
1732.1998892372285 
1732.1998892372285 
1732.1998892372285 
1732.1998874941783 
1732.1998229458118 
1732.1979284778959 
1732.1573736406299 
1731.5758232827602 
1726.7992343028554 
1710.071773550203 
1663.8395599760652 
1566.86421400598 
1390.6706323563162 
1025.2554957318466 
772.797109405143 
25326.71088237847 
25326.71088237847 
25326.71088237847 
25326.71088237847 
25326.71088237847 
25326.71088237847 
25326.71088237847 
25326.71088237847 
25326.71088237847 
25326.7108785371 
25326.71072552616 
25326.705692257914 
25326.57956776928 
25324.311947083614 
25297.522379535967 
25119.881288482295 
24578.869738225974 
23265.49804133603 
20770.752899257328 
15312.720497628874 
11424.07518764376 
257812.4089976707 
257812.4089976707 
257812.4089976707 
257812.4089976707 
257812.4089976707 
257812.4089976707 
257812.4089976707 
257812.4089976707 
257812.4089975985 
257812.40899043204 
257812.40868261716 
257812.3976419321 
257812.08837216676 
257805.61077945452 
257710.36861521314 
256815.1292060921 
252219.54859248322 
240330.60375508998 
215089.2454756858 
157994.94750033942 
118042.46727282192 
1692011.3328338754 
1692011.3328338754 
1692011.3328338754 
1692011.3328338754 
1692011.3328338754 
1692011.3328338754 
1692011.3328338754 
1692011.3328338754 
1692011.332833659 
1692011.3328219515 
1692011.3322859912 
1692011.3117840744 
1692010.6892829463 
1691996.195795361 
1691749.4792688054 
1688889.8978778261 
1668551.603748155 
1592241.7539061976 
1425076.0736702888 
1029213.3726259279 
741918.0402768617 
6433693.6684319815 
6433693.6684319815 
6433693.6684319815 
6433693.6684319815 
6433693.6684319815 
6433693.6684319815 
6433693.6684319815 
6433693.6684319815 
6433693.668431693 
6433693.668414513 
6433693.667596771 
6433693.634854979 
6433692.58227027 
6433666.198140062 
6433170.64186644 
6426575.558375925 
6369411.448450632 
6083751.322043855 
5336310.491028832 
3673335.6176546817 
2523180.6681107287 
12679470.32636429 
12679470.326364292 
12679470.326364292 
12679470.326364292 
12679470.326364292 
12679470.326364292 
12679470.326364292 
12679470.326364292 
12679470.326364001 
12679470.326341713 
12679470.325241555 
12679470.27982 
12679468.762681253 
12679428.832458984 
12678628.983060803 
12667000.484761234 
12552501.75750471 
11864826.524530932 
9676849.033048159 
5708494.822786015 
3344074.4919610885 
14212487.198268881 
14212487.198268881 
14212487.198268881 
14212487.198268881 
14212487.198268881 
14212487.198268881 
14212487.198268881 
14212487.198268881 
14212487.198268592 
14212487.19824287 
14212487.19693125 
14212487.14180556 
14212485.259496495 
14212434.316153184 
14211375.634402324 
14195191.390405366 
14023739.118101114 
12876395.45107398 
8722310.056926878 
2722446.617064856 
-114397.50049280468 
13017666.417905932 
13017666.417905932 
13017666.417905932 
13017666.417905932 
13017666.417905932 
13017666.417905932 
13017666.417905932 
13017666.417905932 
13017666.417905644 
13017666.417878712 
13017666.416488357 
13017666.357710883 
13017664.336261189 
13017609.122753218 
13016448.026993457 
12998399.081827324 
12802643.904101398 
11443271.59582997 
6304677.3598803645 
-396534.0005218447 
-3139709.3543983595 
</DataArray>
<DataArray type="Float64" Name="sigma_yy" NumberOfComponents="1" format="ascii" >
0.0 
0.0 
0.0 
0.0 
0.0 
0.0 
0.0 
0.0 
0.0 
0.0 
0.0 
0.0 
0.0 
0.0 
0.0 
0.0 
0.0 
0.0 
0.0 
0.0 
0.0 
0.0 
0.0 
0.0 
0.0 
0.0 
0.0 
0.0 
0.0 
0.0 
0.0 
0.0 
0.0 
0.0 
0.0 
0.0 
0.0 
0.0 
0.0 
0.0 
0.0 
0.0 
0.0 
0.0 
0.0 
0.0 
0.0 
0.0 
0.0 
0.0 
0.0 
0.0 
0.0 
0.0 
0.0 
0.0 
0.0 
0.0 
0.0 
0.0 
0.0 
0.0 
0.0 
0.0 
0.0 
0.0 
0.0 
0.0 
0.0 
0.0 
0.0 
0.0 
0.0 
0.0 
0.0 
0.0 
0.0 
0.0 
0.0 
0.0 
0.0 
0.0 
0.0 
0.0 
0.0 
0.0 
0.0 
0.0 
0.0 
0.0 
0.0 
0.0 
0.0 
0.0 
0.0 
0.0 
0.0 
0.0 
0.0 
0.0 
0.0 
0.0 
0.0 
0.0 
0.0 
0.0 
0.0 
0.0 
0.0 
0.0 
0.0 
0.0 
0.0 
0.0 
0.0 
0.0 
0.0 
0.0 
0.0 
0.0 
0.0 
0.0 
0.0 
0.0 
0.0 
0.0 
0.0 
0.0 
0.0 
0.0 
0.0 
0.0 
0.0 
0.0 
0.0 
0.0 
0.0 
0.0 
0.0 
0.0 
0.0 
0.0 
0.0 
0.0 
0.0 
0.0 
0.0 
1.7319479184152438e-06 
1.7319479184152438e-06 
1.7319479184152438e-06 
1.7319479184152438e-06 
1.7319479184152438e-06 
1.7319479184152438e-06 
1.7319479184152438e-06 
1.7319479184152438e-06 
1.7319479184152438e-06 
1.7319479184152438e-06 
1.7319479184152438e-06 
1.7319479184152438e-06 
1.7319479184152438e-06 
1.7319479184152438e-06 
1.7319479184152438e-06 
1.7319479184152438e-06 
1.7319479184152438e-06 
1.5876189252139734e-06 
1.1546319456101626e-06 
6.827871601444712e-07 
4.996003610813203e-07 
9.641176745844858e-05 
9.641176745844858e-05 
9.641176745844858e-05 