<?xml version="1.0"?>
<VTKFile type="UnstructuredGrid" version="0.1" byte_order="LittleEndian" compressor="vtkZLibDataCompressor">
<UnstructuredGrid>
<Piece NumberOfPoints="441" NumberOfCells="400">
<PointData>
<DataArray type="Float64" Name="displacement" NumberOfComponents="3" format="ascii" >
0.0 5.740273337772837e-14  0.
-3.7477456836823896e-21 5.740270862343033e-14  0.
-2.5700082002343255e-20 5.740268343659756e-14  0.
-1.2235880732848475e-19 5.740257004488439e-14  0.
-4.329876136247497e-19 5.740208691479267e-14  0.
-1.4225385447754644e-18 5.740051330581844e-14  0.
-4.207244645435333e-18 5.739567408561733e-14  0.
-1.1257807862289158e-17 5.738225170113632e-14  0.
-2.753670477613132e-17 5.734845248700412e-14  0.
-6.190262533338332e-17 5.727004762506448e-14  0.
-1.285840065522739e-16 5.710250377367162e-14  0.
-2.4808431596700186e-16 5.677001791457625e-14  0.
-4.464009260676324e-16 5.6155224164083175e-14  0.
-7.517192797305482e-16 5.5092090355681685e-14  0.
-1.1882216612676544e-15 5.336720254313945e-14  0.
-1.7672488788470254e-15 5.073493917540576e-14  0.
-2.478509775905118e-15 4.69481940693699e-14  0.
-3.2841517301703186e-15 4.180377116263841e-14  0.
-4.131951786155469e-15 3.520559398272952e-14  0.
-5.2679564343599865e-15 2.7492711985342588e-14  0.
-1.3299209685531855e-14 2.766787097155641e-14  0.
0.0 3.370736114378832e-13  0.
-1.9865863142872296e-20 3.370736008430251e-13  0.
-9.08410973144874e-20 3.370735249187343e-13  0.
-4.131049760518384e-19 3.370731506954708e-13  0.
-1.6787822764206797e-18 3.37071547236348e-13  0.
-5.9607886416848845e-18 3.3706557490374985e-13  0.
-1.8791118624984126e-17 3.3704588164361883e-13  0.
-5.320525031521533e-17 3.3698786632000164e-13  0.
-1.364191726574035e-16 3.368333614132925e-13  0.
-3.1934886965164603e-16 3.3645871734687427e-13  0.
-6.871888735673817e-16 3.356251305084881e-13  0.
-1.3668365285017121e-15 3.339135485124963e-13  0.
-2.5249272413678788e-15 3.3065380693449416e-13  0.
-4.348861194383284e-15 3.248712631648232e-13  0.
-7.0074617924598136e-15 3.152831314298663e-13  0.
-1.0592890588966702e-14 3.003781611562099e-13  0.
-1.50581750628456e-14 2.786015118365409e-13  0.
-2.0172736637929433e-14 2.4863948355679664e-13  0.
-2.5606197759161744e-14 2.0984658382239572e-13  0.
-3.3081068659080204e-14 1.64861790729071e-13  0.
-9.198330746919413e-14 1.6990366401870525e-13  0.
0.0 3.4812026284276043e-12  0.
-7.987910071910544e-20 3.481202599748761e-12  0.
-4.6413672085895505e-19 3.4812022405330898e-12  0.
-2.4175443554164415e-18 3.481200235365102e-12  0.
-1.0751129908037288e-17 3.4811907671504935e-12  0.
-4.1506904122835415e-17 3.4811520725931677e-12  0.
-1.4053178331259917e-16 3.481014381241498e-12  0.
-4.228459985710621e-16 3.4805807261951586e-12  0.
-1.1425722913234316e-15 3.4793586837749604e-12  0.
-2.7987255543207383e-15 3.4762461123100668e-12  0.
-6.261591048620693e-15 3.4690222632475425e-12  0.
-1.2879536103934722e-14 3.4536395714008083e-12  0.
-2.4486028565883953e-14 3.423412267317778e-12  0.
-4.3224730930869504e-14 3.3683349437235277e-12  0.
-7.111837591095898e-14 3.27489921080866e-12  0.
-1.0941362582159719e-13 3.1268161563743944e-12  0.
-1.5781918736657208e-13 2.9069345567747124e-12  0.
-2.1395074516102526e-13 2.600363047160812e-12  0.
-2.742056081352127e-13 2.1993574691154636e-12  0.
-3.5745293917500296e-13 1.7321239835465157e-12  0.
-9.886234668395442e-13 1.7958444668467674e-12  0.
0.0 3.199526105337243e-11  0.
-3.0921402114644565e-19 3.19952608722163e-11  0.
-2.078066291208085e-18 3.199525939028392e-11  0.
-1.2002746321600291e-17 3.199525017634894e-11  0.
-5.890292776108925e-17 3.199520193182155e-11  0.
-2.4780647216629445e-16 3.1994986158917655e-11  0.
-9.054934346036797e-16 3.199415259571882e-11  0.
-2.90949888450386e-15 3.199133462419734e-11  0.
-8.322566614415145e-15 3.19828900170163e-11  0.
-2.1405696819633115e-14 3.1960215611400565e-11  0.
-4.994797367404906e-14 3.19051460155422e-11  0.
-1.0649964406060715e-13 3.178322206147801e-11  0.
-2.0880654731999504e-13 3.1535508446911526e-11  0.
-3.783771452452227e-13 3.107111232538112e-11  0.
-6.365121027027565e-13 3.026400114979696e-11  0.
-9.976087628358357e-13 2.895849660514509e-11  0.
-1.4612750580392595e-12 2.6986786256903856e-11  0.
-2.0059972593593735e-12 2.419925167327392e-11  0.
-2.5983688813158327e-12 2.0514624396659954e-11  0.
-3.4317944779596785e-12 1.6215104527970157e-11  0.
-9.358283170343966e-12 1.6912097464190452e-11  0.
0.0 2.577388698299588e-10  0.
-1.0962813641758602e-18 2.5773886922280086e-10  0.
-8.148191835839795e-18 2.577388638639992e-10  0.
-5.140791554448795e-17 2.577388275930352e-10  0.
-2.766254482502851e-16 2.577386187182295e-10  0.
-1.2708896196618624e-15 2.5773759369825534e-10  0.
-5.024565820166143e-15 2.5773328510481707e-10  0.
-1.7312713524403723e-14 2.577175807894433e-10  0.
-5.259673828194385e-14 2.576673479265758e-10  0.
-1.4252096835065684e-13 2.57524632672988e-10  0.
-3.477113118785583e-13 2.5716082316113084e-10  0.
-7.702782109324987e-13 2.5632120400830044e-10  0.
-1.5600649083709732e-12 2.5455387804149933e-10  0.
-2.9060569108248398e-12 2.511393308303013e-10  0.
-5.003305191653197e-12 2.4505196102379306e-10  0.
-7.995299724888193e-12 2.349929979366559e-10  0.
-1.1899931338053814e-11 2.1952905397783435e-10  0.
-1.6550368934964126e-11 1.9734882497860416e-10  0.
-2.1679534892406688e-11 1.6771659712009575e-10  0.
-2.9048591553365464e-11 1.3314635918462102e-10  0.
-7.784824732845035e-11 1.3986794916794326e-10  0.
0.0 1.801274830547586e-09  0.
-3.496615162095471e-18 1.8012748287625491e-09  0.
-2.8025595542935164e-17 1.8012748118599092e-09  0.
-1.9171241934892223e-16 1.8012746879359235e-09  0.
-1.1222522431808116e-15 1.8012739108797254e-09  0.
-5.608503902910638e-15 1.801269752629866e-09  0.
-2.4009677031449522e-14 1.801250738353488e-09  0.
-8.881877830834432e-14 1.8011759510038667e-09  0.
-2.873127951472893e-13 1.80091995989444e-09  0.
-8.217897965621628e-13 1.8001486845521765e-09  0.
-2.1006716950345583e-12 1.7980802491127757e-09  0.
-4.841924824324142e-12 1.7930952222136546e-09  0.
-1.0143454757818757e-11 1.7822074243553736e-09  0.
-1.944005505113873e-11 1.760504406932416e-09  0.
-3.427861556022883e-11 1.7207821578558097e-09  0.
-5.587251691184463e-11 1.6536884114186564e-09  0.
-8.452433507803288e-11 1.548657538961226e-09  0.
-1.1912493201155703e-10 1.3957883411948626e-09  0.
-1.5788586849869618e-10 1.189421237734663e-09  0.
-2.1493342789226556e-10 9.49381357030243e-10  0.
-5.637152969636972e-10 1.0060692337754613e-09  0.
0.0 1.0792954709549072e-08  0.
-1.0027195402188113e-17 1.079295470481747e-08  0.
-8.580447761787503e-17 1.0792954657409579e-08  0.
-6.298858932214733e-16 1.079295428536864e-08  0.
-3.975090911833154e-15 1.0792951771315334e-08  0.
-2.146350463374165e-14 1.0792937221237507e-08  0.
-9.910767842823243e-14 1.0792865280081009e-08  0.
-3.933175249417002e-13 1.0792560460349582e-08  0.
-1.354392069529716e-12 1.0791444835269923e-08  0.
-4.0922149106548355e-12 1.0787878482411882e-08  0.
-1.0964881071898995e-11 1.0777811927684814e-08  0.
-2.6312402148165888e-11 1.0752461355333672e-08  0.
-5.7028720506690887e-11 1.0694991306568982e-08  0.
-1.1246687455868447e-10 1.0576777867864369e-08  0.
-2.0307732837946243e-10 1.0354666520117807e-08  0.
-3.375580288759861e-10 9.971265784281276e-09  0.
-5.188740396787813e-10 9.360313373140926e-09  0.
-7.408741934700611e-10 8.45838437998168e-09  0.
-9.938022238518794e-10 7.229311538704467e-09  0.
-1.3766355847107085e-09 5.810550844474517e-09  0.
-3.514326454483123e-09 6.224640054290753e-09  0.
0.0 5.46765810475833e-08  0.
-2.609264372287964e-17 5.46765810362426e-08  0.
-2.3612589386775583e-16 5.467658091722176e-08  0.
-1.843703285870869e-15 5.467657992500836e-08  0.
-1.2431475441010311e-14 5.46765727677562e-08  0.
-7.193805995404082e-14 5.467652838040505e-08  0.
-3.5613054335556736e-13 5.467629279029711e-08  0.
-1.5102911450507618e-12 5.467522346244472e-08  0.
-5.523332219888844e-12 5.467105259031833e-08  0.
-1.7597341829766598e-11 5.465694290894353e-08  0.
-4.936268682891833e-11 5.461510068828508e-08  0.
-1.2316784886920986e-10 5.4505182590165226e-08  0.
-2.7586259707304924e-10 5.4246926918941305e-08  0.
-5.590802982998609e-10 5.3699615864062496e-08  0.
-1.0324177990654062e-09 5.2645627215072396e-08  0.
-1.747632596140798e-09 5.078939322746226e-08  0.
-2.726018360300798e-09 4.7783367813262623e-08  0.
-3.939133334937266e-09 4.32898241062006e-08  0.
-5.347022547724716e-09 3.712373086885083e-08  0.
-7.548181355791027e-09 3.011622182466675e-08  0.
-1.862241535753564e-08 3.2706591370244945e-08  0.
0.0 2.303191373116005e-07  0.
-6.201388665338872e-17 2.3031913728697824e-07  0.
-5.890981874240381e-16 2.3031913701693842e-07  0.
-4.853645236189646e-15 2.30319134644852e-07  0.
-3.4677046110911494e-14 2.3031911653647164e-07  0.
-2.1333026340145118e-13 2.3031899722166148e-07  0.
-1.1242442343389712e-12 2.3031832295510576e-07  0.
-5.067167040247616e-12 2.303150656552067e-07  0.
-1.9598386517412654e-11 2.3030159801921102e-07  0.
-6.558528421303951e-11 2.3025362182147904e-07  0.
-1.91932366536573e-10 2.301048367773699e-07  0.
-4.962319139037479e-10 2.2969893396478225e-07  0.
-1.1447403189818334e-09 2.2871480006973033e-07  0.
-2.3762890999182717e-09 2.2657506591404302e-07  0.
-4.473239177016479e-09 2.2236919359879923e-07  0.
-7.68678166588208e-09 2.1484256222791662e-07  0.
-1.213119758050563e-08 2.0250425196624284e-07  0.
-1.769687245850704e-08 1.839012892688945e-07  0.
-2.4287367743956508e-08 1.5833000216017551e-07  0.
-3.4984119059223365e-08 1.3012810947921848e-07  0.
-8.263027010859699e-08 1.4381777769983224e-07  0.
0.0 7.906513089826038e-07  0.
-1.3538343113713088e-16 7.906513089337552e-07  0.
-1.3414281670616763e-15 7.906513083770695e-07  0.
-1.1579946069048716e-14 7.906513032612863e-07  0.
-8.700965573501474e-14 7.906512622398304e-07  0.
-5.647309833275866e-13 7.906509773496301e-07  0.
-3.145488804884797e-12 7.906492762799083e-07  0.
-1.497470241581934e-11 7.906405916821951e-07  0.
-6.094423252173918e-11 7.906027513096592e-07  0.
-2.1320005237919562e-10 7.904615715617077e-07  0.
-6.473622751624289e-10 7.90006706793844e-07  0.
-1.7249128002278643e-09 7.887268580680403e-07  0.
-4.074202144737868e-09 7.855489196522294e-07  0.
-8.612808415382746e-09 7.785143030702694e-07  0.
-1.6429390607930746e-08 7.645116793445026e-07  0.
-2.8497054810323738e-08 7.392469764236896e-07  0.
-4.5252896642105636e-08 6.976462727638482e-07  0.
-6.634172969397218e-08 6.348789842850639e-07  0.
-9.186257166163313e-08 5.493602484469524e-07  0.
-1.351022542993484e-07 4.603516213231977e-07  0.
-3.0167439389366087e-07 5.204559757321413e-07  0.
0.0 2.1599370443533063e-06  0.
-2.724585028250147e-16 2.1599370442646563e-06  0.
-2.8005741642382113e-15 2.159937043220203e-06  0.
-2.5172317088207452e-14 2.159937033239354e-06  0.
-1.97581871044456e-13 2.159936949733627e-06  0.
-1.3435126891648124e-12 2.1599363427485105e-06  0.
-7.85469231646254e-12 2.1599325407798007e-06  0.
-3.924912549591905e-11 2.159912165099812e-06  0.
-1.6717495700222645e-10 2.159819168588298e-06  0.
-6.083153849072909e-10 2.1594577803633263e-06  0.
-1.9056517061156735e-09 2.1582553840328163e-06  0.
-5.196375496718482e-09 2.1547949510173533e-06  0.
-1.2471435465256227e-08 2.146079088130713e-06  0.
-2.6619252112645227e-08 2.126657360422199e-06  0.
-5.1008133090914947e-08 2.087977800606076e-06  0.
-8.849494136451703e-08 2.0185201422236394e-06  0.
-1.401768300258194e-07 1.9051757765830943e-06  0.
-2.0495115073255185e-07 1.7365560085912344e-06  0.
-2.852912239519654e-07 1.513684801951542e-06  0.
-4.279530675785397e-07 1.3078252750242803e-06  0.
-8.883509857411557e-07 1.522346963856268e-06  0.
0.0 4.586365635356258e-06  0.
-5.067009679344499e-16 4.586365635209283e-06  0.
-5.3757946929277504e-15 4.586365633427892e-06  0.
-5.0029150710422936e-14 4.5863656158198865e-06  0.
-4.0773295690703754e-13 4.586365463003563e-06  0.
-2.886097785826071e-12 4.586364307695007e-06  0.
-1.7596554137968192e-11 4.586356765425228e-06  0.
-9.172541050768306e-11 4.586314603854848e-06  0.
-4.066577186999137e-10 4.586114197601601e-06  0.
-1.5316842266363224e-09 4.585307210477441e-06  0.
-4.924089133681304e-09 4.582549873611327e-06  0.
-1.364676534569993e-08 4.5744917296583885e-06  0.
-3.2998892607125756e-08 4.554110582574362e-06  0.
-7.04055898066768e-08 4.508970613167999e-06  0.
-1.340120883053492e-07 4.420414315253274e-06  0.
-2.297747550555356e-07 4.264964124149704e-06  0.
-3.5861885030207464e-07 4.0187389221698315e-06  0.
-5.172660982394084e-07 3.6668947321744354e-06  0.
-7.197195359774573e-07 3.235949808366018e-06  0.
-1.0957831514011738e-06 2.9391457001715328e-06  0.
-2.068948735484655e-06 3.5435412834472905e-06  0.
0.0 7.514578414053539e-06  0.
-8.73022260771819e-16 7.5145784138311294e-06  0.
-9.516882877588815e-15 7.514578411067854e-06  0.
-9.124222103835907e-14 7.514578382950969e-06  0.
-7.679026811971679e-13 7.514578131145102e-06  0.
-5.62545318714377e-12 7.514576162280248e-06  0.
-3.555558382229492e-11 7.514562844355069e-06  0.
-1.922209118198357e-10 7.514485643366488e-06  0.
-8.823418740262834e-10 7.514105550006508e-06  0.
-3.4240632103855583e-09 7.5125271475245895e-06  0.
-1.1244038169955747e-08 7.507013621079994e-06  0.
-3.147994962697425e-08 7.490751215972598e-06  0.
-7.606748336405638e-08 7.44982164972758e-06  0.
-1.6066646641630273e-07 7.360773933401807e-06  0.
-3.0013668911831176e-07 7.191418117703307e-06  0.
-5.02007337242793e-07 6.906561910852726e-06  0.
-7.610372749173041e-07 6.480218444755573e-06  0.
-1.0697208218688465e-06 5.91946266910581e-06  0.
-1.4770022381797026e-06 5.347002761838326e-06  0.
-2.252815177390439e-06 5.257079185236504e-06  0.
-3.7750557406643055e-06 6.549550481454771e-06  0.
0.0 9.943926510476866e-06  0.
-1.4000115907524524e-15 9.943926510167808e-06  0.
-1.5617681732719573e-14 9.943926506247008e-06  0.
-1.535645917651471e-13 9.943926465360004e-06  0.
-1.3281407098191578e-12 9.94392608932956e-06  0.
-1.0017343493481262e-11 9.943923064187184e-06  0.
-6.528171293624338e-11 9.943901976348531e-06  0.
-3.640779118757889e-10 9.943775899634902e-06  0.
-1.7218030164421473e-09 9.943136203060047e-06  0.
-6.8549898998610784e-09 9.940408554051795e-06  0.
-2.2905663258355477e-08 9.930703691651107e-06  0.
-6.44779391120567e-08 9.901933965214907e-06  0.
-1.5460274796928837e-07 9.830399189901955e-06  0.
-3.203815648230791e-07 9.679224694064526e-06  0.
-5.81515065488201e-07 9.40407418308324e-06  0.
-9.37680003395946e-07 8.968631534498156e-06  0.
-1.3660879972457663e-06 8.368608308212118e-06  0.
-1.8559444308099932e-06 7.686224745899451e-06  0.
-2.5327744859395986e-06 7.255411808340244e-06  0.
-3.7726914860483047e-06 7.898289014629945e-06  0.
-5.527012122360095e-06 9.890530570042848e-06  0.
0.0 1.2017528042372787e-05  0.
-2.0991420235033447e-15 1.201752804197767e-05  0.
-2.3876249310447294e-14 1.2017528036875979e-05  0.
-2.398124256256918e-13 1.2017527982571533e-05  0.
-2.122164100795779e-12 1.2017527471938264e-05  0.
-1.6403162042237108e-11 1.2017523265003635e-05  0.
-1.0968705507773879e-10 1.2017493191474573e-05  0.
-6.280209892864205e-10 1.2017308667689406e-05  0.
-3.0462925858962577e-09 1.2016348299837793e-05  0.
-1.239590436983683e-08 1.201216006824935e-05  0.
-4.202126465442492e-08 1.1997025931977247e-05  0.
-1.1856217587075805e-07 1.1952048682794488e-05  0.
-2.806781238148164e-07 1.1842063189930498e-05  0.
-5.664667924282032e-07 1.1618298885393897e-05  0.
-9.915483975567332e-07 1.1233271624660409e-05  0.
-1.5308070899761676e-06 1.0667731403293929e-05  0.
-2.1396648176062606e-06 9.966598729720194e-06  0.
-2.8283840740263443e-06 9.337768114223167e-06  0.
-3.83528927182135e-06 9.37902222373488e-06  0.
-5.415120443155255e-06 1.0900322061629814e-05  0.
-7.047932343180024e-06 1.2950751802480248e-05  0.
0.0 1.4534343413817875e-05  0.
-2.947903272384515e-15 1.4534343413357911e-05  0.
-3.407312071373344e-14 1.4534343407331599e-05  0.
-3.482878061602087e-13 1.4534343342081959e-05  0.
-3.140935739207081e-12 1.453434271712563e-05  0.
-2.4773609589147153e-11 1.4534337465681701e-05  0.
-1.6922517245352035e-10 1.4534299133236536e-05  0.
-9.902654369742419e-10 1.4534058805366677e-05  0.
-4.90605097240447e-09 1.4532781124494083e-05  0.
-2.0333061816017883e-08 1.4527102285427336e-05  0.
-6.975671046304554e-08 1.4506310764843957e-05  0.
-1.9693341932003914e-07 1.4444438533648257e-05  0.
-4.590868600363105e-07 1.4295900420654525e-05  0.
-8.979148148498708e-07 1.4006751144858808e-05  0.
-1.5091164107087492e-06 1.3541169723337516e-05  0.
-2.233199380969932e-06 1.291193861360853e-05  0.
-3.021566260261459e-06 1.2233092009148836e-05  0.
-3.984144877699543e-06 1.1847409973726836e-05  0.
-5.397194835600997e-06 1.2473084408648096e-05  0.
-7.149688422922044e-06 1.4194263719141817e-05  0.
-8.60490013327146e-06 1.5438623122481826e-05  0.
0.0 1.69755842766735e-05  0.
-3.8820461947334604e-15 1.6975584276191664e-05  0.
-4.545188807716666e-14 1.6975584269803907e-05  0.
-4.711721362753269e-13 1.6975584199687235e-05  0.
-4.313924096939592e-12 1.6975583518118935e-05  0.
-3.45803215019639e-11 1.697557769958704e-05  0.
-2.402760969129879e-10 1.697553450949255e-05  0.
-1.430858903777076e-09 1.6975258985118788e-05  0.
-7.210754234692776e-09 1.697376877939934e-05  0.
-3.0332645197920935e-08 1.696704191895013e-05  0.
-1.0507127667639585e-07 1.6942144878569412e-05  0.
-2.965352273880513e-07 1.686798880064027e-05  0.
-6.803839998672532e-07 1.6693078740192495e-05  0.
-1.2871448136856767e-06 1.636794855998965e-05  0.
-2.0751468248635186e-06 1.588218702054669e-05  0.
-2.970789151550068e-06 1.5282759234330327e-05  0.
-3.96634543871964e-06 1.4741309013282608e-05  0.
-5.299823294852719e-06 1.4718902163595465e-05  0.
-7.079922466179908e-06 1.572226774580641e-05  0.
-8.816873776102357e-06 1.6888047967570073e-05  0.
-1.00897528619869e-05 1.7379064993562877e-05  0.
0.0 1.9243024192091037e-05  0.
-4.803028096357458e-15 1.924302419164486e-05  0.
-5.679229091802822e-14 1.924302418567742e-05  0.
-5.950947445089075e-13 1.9243024119493947e-05  0.
-5.511961434053052e-12 1.9243023468943824e-05  0.
-4.4733917390093947e-11 1.924301784839472e-05  0.
-3.1491015514084324e-10 1.924297559577916e-05  0.
-1.9006403639191674e-09 1.9242702483091808e-05  0.
-9.704671404019376e-09 1.9241205884859194e-05  0.
-4.1296090751025584e-08 1.9234369566245583e-05  0.
-1.4412316552107298e-07 1.9208853443152245e-05  0.
-4.064982512889473e-07 1.913280502359209e-05  0.
-9.194186479388413e-07 1.8956109073856432e-05  0.
-1.6855036953877231e-06 1.8641452570863475e-05  0.
-2.6138349052162794e-06 1.8207453089354857e-05  0.
-3.6678467874680575e-06 1.7726481891680215e-05  0.
-4.925289681190228e-06 1.738789919274351e-05  0.
-6.557688097548052e-06 1.7667719811284514e-05  0.
-8.406637908062748e-06 1.860141095837564e-05  0.
-9.81510970314065e-06 1.9159029042372945e-05  0.
-1.1057121517380128e-05 1.9748279155147933e-05  0.
0.0 2.1718187010328272e-05  0.
-5.587915881041383e-15 2.1718187009983336e-05  0.
-6.653454773465685e-14 2.1718187005340058e-05  0.
-7.024875231113474e-13 2.1718186953457724e-05  0.
-6.560017360336572e-12 2.171818643937166e-05  0.
-5.3706523334853036e-11 2.1718181959523374e-05  0.
-3.815730976679053e-10 2.1718147974232088e-05  0.
-2.324932953239448e-09 2.1717926216105446e-05  0.
-1.1982054164967252e-08 2.1716699532540743e-05  0.
-5.140722722416703e-08 2.1711047690792195e-05  0.
-1.8038004176916174e-07 2.1689820373579204e-05  0.
-5.085035966519929e-07 2.1626502148401083e-05  0.
-1.1374553133167527e-06 2.1480975603839456e-05  0.
-2.0327402562872483e-06 2.1230638835679955e-05  0.
-3.054043043478955e-06 2.0910345006205938e-05  0.
-4.243622301322226e-06 2.0599405594529215e-05  0.
-5.756408420723471e-06 2.0456933203767e-05  0.
-7.439904064707657e-06 2.079027938121483e-05  0.
-9.045636975788014e-06 2.137042486694528e-05  0.
-1.023389432582131e-05 2.1615213634678563e-05  0.
-1.1596903164722586e-05 2.228623902597781e-05  0.
0.0 2.4051562999992147e-05  0.
-6.117271651522458e-15 2.4051562999803516e-05  0.
-7.314042464201489e-14 2.405156299725491e-05  0.
-7.75729073390315e-13 2.4051562968654347e-05  0.
-7.279253175874513e-12 2.4051562683938184e-05  0.
-5.990524577850958e-11 2.4051560190435916e-05  0.
-4.2795391149128784e-10 2.4051541173535103e-05  0.
-2.622307451230734e-09 2.4051416398748138e-05  0.
-1.3589876864575719e-08 2.405072236965231e-05  0.
-5.859270910490566e-08 2.4047508405437624e-05  0.
-2.0626182062263754e-07 2.4035391923114872e-05  0.
-5.812886242602739e-07 2.399922950674384e-05  0.
-1.2912958098817534e-06 2.3916649620698515e-05  0.
-2.2699806375388945e-06 2.3777678513876862e-05  0.
-3.3400719839719954e-06 2.360977239188325e-05  0.
-4.616341142811712e-06 2.346764218187607e-05  0.
-6.288320510968004e-06 2.343464952447956e-05  0.
-7.889165947167959e-06 2.361498471973805e-05  0.
-9.244300317209623e-06 2.3895893630037618e-05  0.
-1.0636173754388903e-05 2.4003980398889138e-05  0.
-1.1832694056436004e-05 2.419249094400251e-05  0.
0.0 2.644999999999994e-05  0.
-6.304415663623682e-15 2.644999999999994e-05  0.
-7.548182131588047e-14 2.644999999999994e-05  0.
-8.01762227628914e-13 2.644999999999994e-05  0.
-7.535680162608116e-12 2.644999999999994e-05  0.
-6.212250453474484e-11 2.644999999999994e-05  0.
-4.4460189630519863e-10 2.644999999999994e-05  0.
-2.729434686307899e-09 2.644999999999994e-05  0.
-1.4171180259136728e-08 2.644999999999994e-05  0.
-6.119915755892436e-08 2.644999999999994e-05  0.
-2.1567195333636143e-07 2.644999999999994e-05  0.
-6.077508446573703e-07 2.644999999999994e-05  0.
-1.346935444695445e-06 2.644999999999994e-05  0.
-2.35444571611323e-06 2.644999999999994e-05  0.
-3.4390234469078293e-06 2.644999999999994e-05  0.
-4.742955146850689e-06 2.644999999999994e-05  0.
-6.463393670867123e-06 2.644999999999994e-05  0.
-8.026569650831142e-06 2.644999999999994e-05  0.
-9.299238590637356e-06 2.644999999999994e-05  0.
-1.0860205133398133e-05 2.644999999999994e-05  0.
-1.1855503272555036e-05 2.644999999999994e-05  0.
</DataArray>
<DataArray type="Float64" Name="sigma_xx" NumberOfComponents="1" format="ascii" >
1.5661567154268137 
1.5661565710978205 
1.5661548058432113 
1.5661485774920432 
1.5661265284627741 
1.5660555074958888 
1.5658512042548973 
1.565318374918689 
1.5640460593324685 
1.5612441117696103 
1.5555210786111213 
1.5446271151020592 
1.5252250240571636 
1.4927786340379607 
1.4416813520767842 
1.3657118769216932 
1.2588488917941727 
1.1162287205657146 
0.9321615479507269 
0.6318447764996902 
0.4348388316088857 
9.586639293512885 
9.586638488601192 
9.586633314961897 
9.586610361100863 
9.586521565463354 
9.58621907964918 
9.58529963179799 
9.582779236794178 
9.576490100915432 
9.562099578808155 
9.531709455057321 
9.472158385426251 
9.363381819893487 
9.177451221198393 
8.87907150026734 
8.428256553782983 
7.785451872077683 
6.918003458977749 
5.791352364337142 
4.025872124557848 
2.8937144347374026 
88.6429257440646 
88.64292170285279 
88.6428957180829 
88.64276887510233 
88.64223751681163 
88.64029652499991 
88.63402540248974 
88.61590162778651 
88.5685862039853 
88.4560280467461 
88.21028363303893 
87.71480856650801 
86.78746865609097 
85.16915191991711 
82.52604937197813 
78.47311980779811 
72.6224165303879 
64.64539334394279 
54.1838654999349 
37.67155531686493 
27.06530865537181 
711.9216077655642 
711.9215918338638 
711.9214782524972 
711.9208758732395 
711.9181428150155 
711.9074098949072 
711.8704625830305 
711.7576960591341 
711.4491511805985 
710.6852095539738 
708.9593974884955 
705.3775361143265 
698.5069428866451 
686.2659319900597 
665.9219776522505 
634.2694923971991 
588.0220248000165 
524.3242537533719 
439.8967735047553 
304.96867682583405 
217.94303849964604 
4953.9895900618785 
4953.989533507118 
4953.989100392462 
4953.986615219284 
4953.974430021988 
4953.922994005431 
4953.734259099949 
4953.1252105106105 
4951.377418815904 
4946.870403432778 
4936.333291380433 
4913.822202931571 
4869.585008596132 
4789.161997831302 
4653.246622729477 
4438.836980530379 
4121.985170202346 
3681.3578491418075 
3090.901180899385 
2134.675202630775 
1515.2554251440788 
29498.837349950503 
29498.83716983902 
29498.83570759758 
29498.826705026673 
29498.779272296702 
29498.56478028922 
29497.72698246366 
29494.871395524526 
29486.28209685776 
29463.23616369871 
29407.534937209144 
29285.218936578312 
29039.353371662626 
28584.062577360895 
27803.052949437737 
26556.11902396548 
24695.500414745322 
22086.40059440935 
18551.41242725344 
12746.060594226443 
8968.602212838789 
148056.47580954366 
148056.4752939894 
148056.4708837894 
148056.44196090312 
148056.27931423477 
148055.49533373202 
148052.24677014723 
148040.58354209166 
148003.9087510681 
147901.79666720465 
147647.40860999931 
147075.04632779083 
145902.30078007356 
143698.22960069164 
139874.62413655166 
133718.4339788022 
124473.90922165898 
111436.06213122323 
93584.12287039371 
63841.43688621943 
44400.98495991916 
614765.0839596228 
614765.0826214099 
614765.0706259053 
614764.9874327029 
614764.4915682591 
614761.9588135974 
614750.8752568474 
614709.1201251063 
614572.4337110857 
614179.2603010896 
613174.7380171829 
610871.6025722575 
606089.945851154 
597026.222158714 
581227.7519427892 
555741.0922645943 
517457.26907564106 
463416.0754729359 
388736.682796889 
262534.52001087624 
179696.2418954383 
2061694.7402840252 
2061694.7371106972 
2061694.707465405 
2061694.4915030235 
2061693.1362556708 
2061685.845332039 
2061652.3207584275 
2061520.3672899613 
2061072.7565616514 
2059750.2744044643 
2056308.0292669698 
2048329.0932964187 
2031690.4027033949 
2000191.9763352019 
1945600.2472425369 
1858309.7565598774 
1728523.030306963 
1546728.8707967787 
1293892.3963449334 
861108.8140219848 
576079.6592049641 
5409059.101643318 
5409059.094734307 
5409059.027804357 
5409058.518795776 
5409055.176799136 
5409036.352791908 
5408945.8822105145 
5408575.517644773 
5407279.5988092795 
5403369.94654028 
5393082.642193643 
5369203.936186349 
5319769.870889996 
5227568.577139833 
5071146.045939843 
4827471.831457844 
4475181.93086359 
3992820.471544008 
3320984.372864642 
2160741.8367922893 
1395743.9688614171 
10649735.1081928 
10649735.09433543 
10649734.955782311 
10649733.861920958 
10649726.391415205 
10649682.58741625 
10649463.685527094 
10648535.881006809 
10645201.759050502 
10634987.252784405 
10608029.321750626 
10546011.640055783 
10420268.816225551 
10193100.824298713 
9823769.562808212 
9277394.336001715 
8531199.418288903 
7557675.7970430255 
6210389.359196745 
3887999.728829767 
2364412.359102617 
15033489.389555782 
15033489.363875259 
15033489.099979494 
15033486.948152492 
15033471.743122298 
15033379.423024384 
15032902.109661764 
15030816.689450014 
15023150.41198094 
14999410.525884906 
14937015.306376522 
14796230.929060444 
14520542.390901182 
14047363.327287324 
13328668.933204215 
12353540.404735237 
11149166.487239957 
9711899.426216092 
7754380.492289145 
4492983.801839667 
2406138.3399848286 
15041703.694914714 
15041703.65075705 
15041703.186132617 
15041699.290791005 
15041670.946838565 
15041493.591811791 
15040549.176804142 
15036312.442588339 
15020431.667724457 
14970892.295137309 
14841942.294863157 
14559302.949424883 
14032157.22840767 
13189515.376644809 
12028017.399118032 
10642509.177306354 
9184503.248922016 
7669098.019945495 
5629667.584176098 
2649581.967721634 
921228.3633691175 
12636823.299405769 
12636823.228630967 
12636822.468689276 
12636815.944124604 
12636767.26163619 
12636454.665910983 
12634747.171122957 
12626909.346210714 
12597032.445457162 
12503352.947621733 
12262726.2374077 
11754501.760538688 
10864230.11341501 
9565798.212649446 
7995567.206084816 
6429943.896587506 
5120910.836864468 
3909857.62289553 
2153200.4344700957 
353163.41012731055 
-333589.5791061502 
12882943.01911795 
12882942.91307518 
12882941.754742535 
12882931.608018102 
12882854.2754925 
12882346.725727126 
12879513.660601048 
12866251.354972165 
12814965.32054554 
12653577.734627588 
12245342.80676738 
11419780.693112427 
10081382.8388783 
8341505.533471819 
6566401.436231439 
5182943.187795142 
4275259.485646902 
3214947.7664445373 
1371852.3521788872 
51327.40477112285 
-126861.03725659009 
13916980.671420027 
13916980.5226179 
13916978.873952247 
13916964.190306365 
13916850.2994929 
13916089.140487159 
13911763.3992536 
13891179.096305938 
13810618.503820041 
13556487.756974742 
12923820.612911412 
11703601.632636491 
9899819.121627185 
7868984.887035818 
6189532.724754546 
5217808.106742202 
4465217.841686076 
2957570.02997489 
777837.9270595491 
-397493.8936419706 
-445516.34165606275 
13215388.772862397 
13215388.576952688 
13215386.381411843 
13215366.564733043 
13215210.679868609 
13214153.57335658 
13208058.231210362 
13178665.896257116 
13062507.41706669 
12695454.40286881 
11795280.464238392 
10139849.373345057 
7935078.656064933 
5860940.330009459 
4499786.838144097 
3775978.220496148 
2632904.8371758037 
421230.8416023692 
-1265624.104335985 
-1102774.5328659767 
-584061.0810412895 
13310837.206119303 
13310836.963798095 
13310834.224211909 
13310809.243123667 
13310610.599137228 
13309248.380594227 
13301305.697804155 
13262611.020914378 
13108529.618863696 
12621052.869141433 
11440807.096827997 
9362798.358259186 
6880900.357176244 
5011934.089484807 
3997703.913694517 
3041303.4256898337 
1349420.7895196613 
-832744.9085416605 
-1125259.6969809842 
-51162.503714354476 
232831.47087107366 
13496307.613596164 
13496307.331729423 
13496304.125242215 
13496274.674911996 
13496038.69873094 
13494407.628507117 
13484822.00267908 
13437782.518561915 
13249460.54564097 
12653170.00005597 
11223526.370087862 
8793242.243103458 
6167078.55362606 
4643447.913637852 
3857449.6641513323 
2255342.3605119605 
403797.77686774754 
-575671.000330888 
-36837.27809173311 
209916.01854149322 
-371149.1530045201 
13280428.31078215 
13280428.002233824 
13280424.47922858 
13280391.982416317 
13280130.409529965 
13278313.877505703 
13267587.935257548 
13214723.296430588 
13002395.549187746 
12329773.341177594 
10726912.843721673 
8063586.401746856 
5386412.863002651 
4174719.834178744 
3482499.34511419 