<?xml version="1.0"?>
<VTKFile type="UnstructuredGrid" version="0.1" byte_order="LittleEndian" compressor="vtkZLibDataCompressor">
<UnstructuredGrid>
<Piece NumberOfPoints="441" NumberOfCells="400">
<PointData>
<DataArray type="Float64" Name="displacement" NumberOfComponents="3" format="ascii" >
0.0 2.328600352149843e-21  0.
-6.852505558396573e-26 2.3286910248022766e-21  0.
-1.1747753796010867e-26 2.3286826645639046e-21  0.
5.959248014213637e-28 2.328669685980882e-21  0.
3.2285516842469327e-28 2.3286689824937796e-21  0.
-6.54583651624633e-28 2.3286689830129027e-21  0.
-3.386062615077946e-27 2.3286672748409742e-21  0.
-8.662385676421857e-26 2.3285894316335507e-21  0.
-1.1457354711323383e-24 2.327781829030636e-21  0.
-2.30141171265643e-24 2.3286795593537623e-21  0.
-2.145908524037532e-24 2.328443404273421e-21  0.
-3.653343327030642e-24 2.3274371669915247e-21  0.
-9.43640991038571e-24 2.324350050379376e-21  0.
-3.162900720966657e-23 2.3118611704504865e-21  0.
-1.1980028724027248e-22 2.2773866100623724e-21  0.
-3.3779490653146263e-22 2.2106086828854603e-21  0.
-3.1209195262852217e-22 1.2901995383040801e-21  0.
-3.197002215299581e-22 1.0323478775362046e-21  0.
-4.574496826170491e-22 4.157153256852237e-22  0.
-3.2530319026462056e-22 2.833371548041318e-23  0.
-3.270828334317617e-22 2.861493635991463e-22  0.
0.0 1.6277920427932148e-19  0.
-2.6641113368827806e-24 1.630085998392354e-19  0.
-1.664455844333716e-26 1.63006943516362e-19  0.
2.745792810986921e-26 1.6300683771066212e-19  0.
-1.1195034810723852e-27 1.630068597465333e-19  0.
-3.032155226149113e-26 1.6300683603782915e-19  0.
-1.6598996103304893e-25 1.630067465877224e-19  0.
-6.911685678436878e-25 1.6300638141030075e-19  0.
-1.1376584137398492e-23 1.629949281237118e-19  0.
-2.3021486955276694e-22 1.625128958373648e-19  0.
-1.3120416839094284e-22 1.624102247357917e-19  0.
-2.647709627811679e-22 1.6232108644191337e-19  0.
-7.579128056828757e-22 1.6156251114515743e-19  0.
-1.5260639945038995e-21 1.5976947984643061e-19  0.
-3.1366228577916025e-21 1.5554245878990568e-19  0.
-5.87471509019313e-21 1.4548669613648154e-19  0.
-6.4005207038676685e-21 1.3235574321805273e-19  0.
-8.225150416246694e-21 1.2126900952228808e-19  0.
-1.1925234723322495e-20 1.0041205448254438e-19  0.
-1.3110255396152917e-20 7.790257875615192e-20  0.
-4.083428889483165e-20 7.844048239172037e-20  0.
0.0 4.433400060621186e-18  0.
-9.351441217884629e-24 4.432149358797323e-18  0.
-9.241657353958682e-25 4.432137743541449e-18  0.
-1.4290758515583575e-25 4.4321372649489546e-18  0.
-5.654037310743453e-26 4.432137160627765e-18  0.
-1.0341144433829036e-24 4.432136177127214e-18  0.
-1.2572792204546487e-23 4.432126546087893e-18  0.
-6.645781023205801e-23 4.432100952792344e-18  0.
-3.3169143393534155e-22 4.431859776363883e-18  0.
-2.3469712643934207e-21 4.430033073483427e-18  0.
-5.8190798096245076e-21 4.4196238813333325e-18  0.
-1.196545271780524e-20 4.401930822717254e-18  0.
-2.3970518547963308e-20 4.3689199329366574e-18  0.
-4.3892902847570823e-20 4.305760904403062e-18  0.
-7.688411739147205e-20 4.193164919672553e-18  0.
-1.2139208556158056e-19 4.0168243232354754e-18  0.
-1.7268132438013678e-19 3.740335913785511e-18  0.
-2.376620819952011e-19 3.3630597474318782e-18  0.
-3.0991824011785483e-19 2.8558677767364134e-18  0.
-3.9202620860952025e-19 2.2434389649091606e-18  0.
-1.209091309903499e-18 2.282557984574724e-18  0.
0.0 1.0269024433919681e-16  0.
-6.117522095206451e-22 1.0269063963421662e-16  0.
-1.6658345120315623e-22 1.0268970541884707e-16  0.
-1.0184834998210324e-24 1.0268957047976233e-16  0.
-1.3581309353171352e-24 1.0268956792332677e-16  0.
-2.263511270028597e-23 1.026895471906129e-16  0.
-5.833413199789111e-22 1.0268907063606744e-16  0.
-3.444385447766964e-21 1.0268514873726773e-16  0.
-1.224214503554244e-20 1.0267115581703302e-16  0.
-4.082286867696651e-20 1.0262543774820018e-16  0.
-1.0626810383214392e-19 1.0249833362071633e-16  0.
-2.4187193826010968e-19 1.0218179817164637e-16  0.
-4.971481246043788e-19 1.0151328165908825e-16  0.
-9.450366755724107e-19 1.0019986546291293e-16  0.
-1.6404168190949536e-18 9.785257852921482e-17  0.
-2.6486023388430354e-18 9.393552008083713e-17  0.
-3.972929077114851e-18 8.788646454920697e-17  0.
-5.5563574964617715e-18 7.914193232238305e-17  0.
-7.279020334963903e-18 6.739554427032832e-17  0.
-9.430250698959983e-18 5.310746207048456e-17  0.
-2.88762854879585e-17 5.4126319628591073e-17  0.
0.0 2.1107461524419893e-15  0.
-2.037547535009899e-21 2.1107424857760565e-15  0.
-1.9148924726114757e-22 2.110742717685379e-15  0.
-8.19882317537153e-25 2.110742780954194e-15  0.
-2.781463173433728e-23 2.1107427533984056e-15  0.
-6.917011152664383e-22 2.1107420839442285e-15  0.
-9.361793999827212e-21 2.1107340933941667e-15  0.
-5.669781065250459e-20 2.1106766594011296e-15  0.
-1.961208410508807e-19 2.1104534277327352e-15  0.
-6.262024371655814e-19 2.109735200032773e-15  0.
-1.6949464807622395e-18 2.10769312482668e-15  0.
-4.100920820707457e-18 2.10254692782967e-15  0.
-8.903164677444818e-18 2.090965033677393e-15  0.
-1.7536903474442788e-17 2.067273838628761e-15  0.
-3.160497566304769e-17 2.0230736877121646e-15  0.
-5.2415465036433467e-17 1.947250525563626e-15  0.
-8.036028946690323e-17 1.8271547048826073e-15  0.
-1.143779963006332e-16 1.6507107384190143e-15  0.
-1.5191466206034522e-16 1.4097546278602162e-15  0.
-1.9969905726631294e-16 1.1140316744536499e-15  0.
-6.088812550669882e-16 1.1389269410387562e-15  0.
0.0 3.8155023945548104e-14  0.
-1.4814389093692977e-21 3.815502198630002e-14  0.
-2.9192336430677347e-23 3.8155021820544985e-14  0.
-6.416508797920248e-23 3.8155021794403037e-14  0.
-3.7862641814949473e-22 3.8155021204956595e-14  0.
-1.1450819617908077e-20 3.8155011341144104e-14  0.
-1.0270930827449464e-19 3.815491850240052e-14  0.
-5.487806602606334e-19 3.8154390270986026e-14  0.
-2.2786963323271225e-18 3.815203661129801e-14  0.
-7.874865842492871e-18 3.8143433956039195e-14  0.
-2.3293860057655215e-17 3.811662571661791e-14  0.
-6.012038568583964e-17 3.804416048891672e-14  0.
-1.3794403763261007e-16 3.7870677698018945e-14  0.
-2.842421736730094e-16 3.749862653846204e-14  0.
-5.316131036256362e-16 3.6776101374498446e-14  0.
-9.084191904751552e-16 3.549592036101729e-14  0.
-1.4273077669307674e-15 3.341307432733064e-14  0.
-2.0710905602669e-15 3.0286363306383694e-14  0.
-2.7932476062965763e-15 2.594528033819491e-14  0.
-3.725689034792221e-15 2.0568450617598618e-14  0.
-1.131459475588843e-14 2.1109190609731223e-14  0.
0.0 6.010914009320078e-13  0.
-4.9015868551939494e-21 6.010914046589056e-13  0.
-8.01345721479589e-22 6.010914046933596e-13  0.
2.8386688922806222e-22 6.010914030141558e-13  0.
-3.478147975115923e-21 6.010913997350445e-13  0.
-7.495196772299317e-20 6.010913423915052e-13  0.
-6.471530555041508e-19 6.010908260001119e-13  0.
-4.27054755446719e-18 6.010870927514183e-13  0.
-2.0838537404526878e-17 6.010671763631169e-13  0.
-8.202040300215704e-17 6.009830670806298e-13  0.
-2.672835582163123e-16 6.006917363841315e-13  0.
-7.479532183340575e-16 5.998324011692857e-13  0.
-1.8266667906032616e-15 5.976293157831723e-13  0.
-3.9656187103839e-15 5.926312665783723e-13  0.
-7.729240855325808e-15 5.824748046885224e-13  0.
-1.3665604502348375e-14 5.638001675794891e-13  0.
-2.2055541174748762e-14 5.324979119142415e-13  0.
-3.2700731016006893e-14 4.843767923246831e-13  0.
-4.484570687834887e-14 4.163362550012579e-13  0.
-6.080819215760553e-14 3.312527529135497e-13  0.
-1.8362687128160705e-13 3.415079210327652e-13  0.
0.0 8.166123809417405e-12  0.
-1.0129353646906255e-20 8.16612380573779e-12  0.
1.9223752675008806e-21 8.166123808006389e-12  0.
1.4771824933364595e-22 8.166123810037463e-12  0.
-2.146211642665827e-20 8.16612379621422e-12  0.
-3.107099152372763e-19 8.166123598827815e-12  0.
-3.1313305800391627e-18 8.1661213955595e-12  0.
-2.4912020228566374e-17 8.16610202444723e-12  0.
-1.5064879826749565e-16 8.165971490561488e-12  0.
-6.855601676434653e-16 8.165322223873875e-12  0.
-2.5301184374708166e-15 8.16274718493146e-12  0.
-7.752019967746028e-15 8.154339630009542e-12  0.
-2.042684140453725e-14 8.130938462291646e-12  0.
-4.6997891923176354e-14 8.074304049610717e-12  0.
-9.613063118790295e-14 7.953026853127552e-12  0.
-1.7644712259818812e-13 7.720518741783108e-12  0.
-2.936077696660114e-13 7.317493392576103e-12  0.
-4.4561438023661667e-13 6.681327514432327e-12  0.
-6.226868083640476e-13 5.763602274420291e-12  0.
-8.599342224146109e-13 4.604854356434549e-12  0.
-2.5765522992187704e-12 4.773406369808082e-12  0.
0.0 9.449607788366133e-11  0.
-2.901902995584371e-21 9.449607789460978e-11  0.
3.5139819390364614e-21 9.449607789359063e-11  0.
-2.0328268545929097e-21 9.449607789066201e-11  0.
-7.470576882324842e-20 9.449607785027003e-11  0.
-1.0715896813355632e-18 9.449607722929801e-11  0.
-1.2258376924553987e-17 9.44960695633656e-11  0.
-1.1342906003818193e-16 9.449599128372024e-11  0.
-8.215805378012926e-16 9.449536235432034e-11  0.
-4.551871255270931e-15 9.449147437416146e-11  0.
-1.921410335905506e-14 9.447349909717617e-11  0.
-6.610921598669661e-14 9.440686541446232e-11  0.
-1.8946100540973397e-13 9.420287506155417e-11  0.
-4.677036422981667e-13 9.366976907277374e-11  0.
-1.0086603400394546e-12 9.24578097183341e-11  0.
-1.9340276336796048e-12 9.002020885877622e-11  0.
-3.3262688561459405e-12 8.563309282156918e-11  0.
-5.1840025107942574e-12 7.850102724627403e-11  0.
-7.391657034480363e-12 6.798410307274415e-11  0.
-1.0424866308248609e-11 5.458158554270024e-11  0.
-3.0888453687112195e-11 5.69571178189633e-11  0.
0.0 9.17893540107662e-10  0.
2.2570251119975717e-21 9.178935401120584e-10  0.
-1.227125705246962e-22 9.17893540112947e-10  0.
-7.535153031322268e-21 9.178935401059761e-10  0.
-2.1040620123914616e-19 9.178935400037508e-10  0.
-3.1715723144794418e-18 9.17893538389908e-10  0.
-4.019382425389146e-17 9.178935160111226e-10  0.
-4.1987896241677194e-16 9.178932598893075e-10  0.
-3.5187811735672714e-15 9.178908851507828e-10  0.
-2.3069720183642417e-14 9.178735580024138e-10  0.
-1.1623594250611322e-13 9.177759931222924e-10  0.
-4.521723836082735e-13 9.173595395923571e-10  0.
-1.4409466552201376e-12 9.159259729323788e-10  0.
-3.839208514480272e-12 9.118360633275341e-10  0.
-8.824596100395858e-12 9.01860518855232e-10  0.
-1.7733283497980786e-11 8.806828427966246e-10  0.
-3.1687102907705395e-11 8.409111690335918e-10  0.
-5.078698572615767e-11 7.741182368882448e-10  0.
-7.409155550367066e-11 6.732547756825416e-10  0.
-1.0695685907167479e-10 5.436908244575123e-10  0.
-3.120644650300302e-10 5.720921489238108e-10  0.
0.0 7.3547548598138155e-09  0.
-5.433764460422294e-21 7.3547548598038984e-09  0.
-3.1299780667749407e-24 7.354754859805486e-09  0.
-2.3312242622474564e-20 7.354754859796472e-09  0.
-5.09119774894218e-19 7.354754859578397e-09  0.
-8.21901294320061e-18 7.354754855855313e-09  0.
-1.133354369503914e-16 7.3547548000187885e-09  0.
-1.3050428447025701e-15 7.35475409781242e-09  0.
-1.2284409893698228e-14 7.354746821537807e-09  0.
-9.241669165058252e-14 7.354686034279277e-09  0.
-5.435056577445424e-13 7.354286970522594e-09  0.
-2.4693695826191842e-12 7.352258895095372e-09  0.
-8.784463410673975e-12 7.3443314920141445e-09  0.
-2.5722694425673137e-11 7.319193541186784e-09  0.
-6.324874144491126e-11 7.252859090454995e-09  0.
-1.343678259348446e-10 7.102973296548006e-09  0.
-2.4984687131696954e-10 6.807960352458288e-09  0.
-4.1338782597333354e-10 6.294451120069973e-09  0.
-6.175416079923321e-10 5.499353949950066e-09  0.
-9.15793371220716e-10 4.4732337104544725e-09  0.
-2.6133019202880503e-09 4.756915215671198e-09  0.
0.0 4.7595052883467124e-08  0.
-5.4705398988069224e-21 4.759505288347419e-08  0.
-1.4904823146995755e-21 4.75950528834778e-08  0.
-5.416087948107444e-20 4.759505288345477e-08  0.
-1.1059960275059537e-18 4.759505288304219e-08  0.
-1.8953138735746637e-17 4.759505287543866e-08  0.
-2.79871098881434e-16 4.7595052753978894e-08  0.
-3.4874710889692014e-15 4.7595051106939865e-08  0.
-3.603838675541694e-14 4.7595032443791703e-08  0.
-3.0271487241287375e-13 4.759485915181956e-08  0.
-2.0229954613263163e-12 4.759356823171502e-08  0.
-1.0558029467904234e-11 4.7586027032484394e-08  0.
-4.282561183753248e-11 4.755181950827892e-08  0.
-1.3799485880479106e-10 4.7430625424239257e-08  0.
-3.676922907508305e-10 4.708018840265011e-08  0.
-8.268725869439718e-10 4.623299646453257e-08  0.
-1.609059854421898e-09 4.447624256720701e-08  0.
-2.7474980111821767e-09 4.130095618341354e-08  0.
-4.213520583331867e-09 3.626004683020664e-08  0.
-6.4325384949521755e-09 2.977033297772772e-08  0.
-1.7791014193259515e-08 3.210108327952783e-08  0.
0.0 2.423876116022904e-07  0.
-2.8118892367168283e-21 2.4238761160228723e-07  0.
-1.3452359862061017e-22 2.4238761160228156e-07  0.
-1.062945793658706e-19 2.423876116022497e-07  0.
-2.174534961775881e-18 2.4238761160155063e-07  0.
-3.931601941599404e-17 2.42387611587712e-07  0.
-6.135357401583406e-16 2.423876113549681e-07  0.
-8.153878863670675e-15 2.4238760799946943e-07  0.
-9.085753580273592e-14 2.423875671486529e-07  0.
-8.33800893777155e-13 2.423871542617406e-07  0.
-6.177281913074548e-12 2.4238375766759336e-07  0.
-3.6206869362088606e-11 2.42361482367943e-07  0.
-1.6552437051853007e-10 2.422472764252761e-07  0.
-5.922474702124259e-10 2.4179126191560574e-07  0.
-1.7079857023186777e-09 2.403463393080819e-07  0.
-4.091016793434864e-09 2.3658706923369931e-07  0.
-8.320036193339604e-09 2.2836652302986465e-07  0.
-1.4684054310791848e-08 2.1293176282131658e-07  0.
-2.3086520693980906e-08 1.8790314689154565e-07  0.
-3.6390370746997915e-08 1.5625693447584235e-07  0.
-9.61357601461859e-08 1.7166424900819417e-07  0.
0.0 9.40836670264074e-07  0.
-3.636030422413501e-21 9.40836670264075e-07  0.
-5.179909374333161e-22 9.408366702640618e-07  0.
-1.8340688016313513e-19 9.408366702640136e-07  0.
-3.920981046497022e-18 9.408366702628974e-07  0.
-7.381902298176602e-17 9.408366702404114e-07  0.
-1.2058051208208047e-15 9.408366698453589e-07  0.
-1.688904950328485e-14 9.408366638585546e-07  0.
-2.0002981134220036e-13 9.408365866188363e-07  0.
-1.9710878952696613e-12 9.40835751172168e-07  0.
-1.5861903343413525e-11 9.408283101742739e-07  0.
-1.0216905336639519e-10 9.407748335007209e-07  0.
-5.17015620423941e-10 9.404710308444668e-07  0.
-2.037529168539103e-09 9.391279834225937e-07  0.
-6.337161212170255e-09 9.344910092130579e-07  0.
-1.6105338898059955e-08 9.215878867144694e-07  0.
-3.4153979753585294e-08 8.919378685208249e-07  0.
-6.204546822971118e-08 8.344538764172834e-07  0.
-9.978469602113691e-08 7.402982002770986e-07  0.
-1.6231452039127084e-07 6.273734537041534e-07  0.
-4.0080604845388643e-07 7.072628936599449e-07  0.
0.0 2.681737202488109e-06  0.
-5.171454373617089e-21 2.6817372024881025e-06  0.
-3.863010784226239e-21 2.681737202488103e-06  0.
-2.9460780448330822e-19 2.6817372024880385e-06  0.
-6.490284939836837e-18 2.68173720248646e-06  0.
-1.2610453017553325e-16 2.681737202453878e-06  0.
-2.137799839027813e-15 2.6817372018606264e-06  0.
-3.124604289450134e-14 2.6817371924975327e-06  0.
-3.887207561046117e-13 2.6817370659021474e-06  0.
-4.055050444015874e-12 2.6817356201685084e-06  0.
-3.4860153557046806e-11 2.6817219029199554e-06  0.
-2.4215440135254643e-10 2.6816158494183035e-06  0.
-1.331796571247706e-09 2.6809617875931444e-06  0.
-5.704037396385562e-09 2.6778099630312206e-06  0.
-1.8996032105843414e-08 2.666075970832219e-06  0.
-5.04417443959101e-08 2.631870399068163e-06  0.
-1.1075530297711661e-07 2.5504798192193707e-06  0.
-2.0480589420152404e-07 2.3904561767718356e-06  0.
-3.3542231171667663e-07 2.1327480894587147e-06  0.
-5.590183641596566e-07 1.8633165989548504e-06  0.
-1.2484237946862639e-06 2.1767420746771984e-06  0.
0.0 5.450544643865042e-06  0.
-8.024379429837268e-21 5.4505446438650316e-06  0.
-5.732027486960064e-21 5.450544643865028e-06  0.
-4.3342432911518634e-19 5.450544643864959e-06  0.
-9.850786802303486e-18 5.450544643863006e-06  0.
-1.965934661118287e-16 5.450544643821178e-06  0.
-3.4338986444591573e-15 5.450544643037852e-06  0.
-5.1929950891769295e-14 5.450544630262449e-06  0.
-6.718223543439703e-13 5.450544450921844e-06  0.
-7.331911102546353e-12 5.450542312052704e-06  0.
-6.64008109862455e-11 5.450520977448116e-06  0.
-4.896275646477844e-10 5.45034620448159e-06  0.
-2.8778970987404025e-09 5.449195551157062e-06  0.
-1.3205208408162597e-08 5.443247067288476e-06  0.
-4.667411962449851e-08 5.419611927734555e-06  0.
-1.282167156270004e-07 5.34789335228995e-06  0.
-2.8481657719652213e-07 5.177272907477408e-06  0.
-5.30638654270283e-07 4.847615783378037e-06  0.
-8.728876018676461e-07 4.357314692156569e-06  0.
-1.469101004973667e-06 4.009583870447251e-06  0.
-2.824799765772323e-06 4.890591786821637e-06  0.
0.0 8.10334147645511e-06  0.
-6.151349775787487e-21 8.103341476455121e-06  0.
-1.185787939560385e-20 8.103341476455126e-06  0.
-5.999144300832888e-19 8.103341476455021e-06  0.
-1.3781938012915979e-17 8.103341476452851e-06  0.
-2.8090159243957616e-16 8.10334147640564e-06  0.
-5.0230679359930246e-15 8.10334147550068e-06  0.
-7.801522149965136e-14 8.103341460356945e-06  0.
-1.040533365255421e-12 8.10334124142267e-06  0.
-1.17604804323294e-11 8.1033385409628e-06  0.
-1.1088820988818024e-10 8.103310534116005e-06  0.
-8.562895214834159e-10 8.10307062068683e-06  0.
-5.300863288631672e-09 8.101408030069543e-06  0.
-2.5696922011611085e-08 8.092318765936642e-06  0.
-9.549650073808463e-08 8.05416273383697e-06  0.
-2.700922271697001e-07 7.93402858117716e-06  0.
-5.974807643871901e-07 7.651358382455745e-06  0.
-1.100624213534191e-06 7.142028837482956e-06  0.
-1.7968780400141735e-06 6.522311797285316e-06  0.
-2.953905861912289e-06 6.515577282893779e-06  0.
-4.67535904898548e-06 8.156552417015014e-06  0.
0.0 1.0220428155063268e-05  0.
-2.061242133443531e-21 1.0220428155063277e-05  0.
-1.9765305800786444e-20 1.0220428155063267e-05  0.
-7.712076004884054e-19 1.0220428155063194e-05  0.
-1.7846164499270593e-17 1.0220428155061093e-05  0.
-3.696708961927821e-16 1.0220428155014752e-05  0.
-6.728692471140135e-15 1.0220428154111398e-05  0.
-1.0662553160063152e-13 1.0220428138702715e-05  0.
-1.4550428722799731e-12 1.0220427911042655e-05  0.
-1.6882080033390615e-11 1.0220425031750493e-05  0.
-1.6404185561389605e-10 1.0220394301455793e-05  0.
-1.3111858503118566e-09 1.0220122118199407e-05  0.
-8.439186989930552e-09 1.0218162794214923e-05  0.
-4.2672591983578384e-08 1.020697906882411e-05  0.
-1.6513955559236459e-07 1.015788751276992e-05  0.
-4.79541141092252e-07 9.997925377805278e-06  0.
-1.0545290599539131e-06 9.624784452239504e-06  0.
-1.886698621708029e-06 9.030295838737407e-06  0.
-3.0401826856144456e-06 8.553940343262849e-06  0.
-4.618886550478817e-06 9.247444425420534e-06  0.
-6.145945115505182e-06 1.1032555004437142e-05  0.
0.0 1.2689164171062278e-05  0.
-4.164740709163251e-21 1.2689164171062268e-05  0.
-2.813534757180852e-20 1.2689164171062266e-05  0.
-9.183809235780073e-19 1.2689164171062204e-05  0.
-2.1446825936253237e-17 1.2689164171060511e-05  0.
-4.491408091404209e-16 1.2689164171023159e-05  0.
-8.27719985319143e-15 1.2689164170285988e-05  0.
-1.3301488871447802e-13 1.2689164157541503e-05  0.
-1.8443181254524933e-12 1.2689163966331344e-05  0.
-2.179200327687713e-11 1.268916150552279e-05  0.
-2.1622140252380677e-10 1.268913470540226e-05  0.
-1.770155104042867e-09 1.2688891793826119e-05  0.
-1.1707502086715918e-08 1.2687095245018655e-05  0.
-6.100139353391278e-08 1.267652263393692e-05  0.
-2.4334998105723005e-07 1.262851725451219e-05  0.
-7.233413163150625e-07 1.2467186507454884e-05  0.
-1.590188932477723e-06 1.2092669539791899e-05  0.
-2.7449304457110274e-06 1.1585545048846238e-05  0.
-4.257186070081328e-06 1.149384239237125e-05  0.
-5.8457657430592965e-06 1.2429472926291621e-05  0.
-7.126445203052401e-06 1.3312311222231296e-05  0.
0.0 1.5076511671533354e-05  0.
-4.692858911927462e-21 1.507651167153337e-05  0.
-2.746589928415421e-20 1.507651167153337e-05  0.
-1.0110605736762008e-18 1.5076511671533344e-05  0.
-2.3937819766134048e-17 1.5076511671532419e-05  0.
-5.044598859386805e-16 1.5076511671511509e-05  0.
-9.364966068099115e-15 1.5076511671096224e-05  0.
-1.5174608196811159e-13 1.507651166385865e-05  0.
-2.1239051756987657e-12 1.5076511554284217e-05  0.
-2.5366173121909684e-11 1.5076510129297527e-05  0.
-2.547985060687491e-10 1.5076494425540993e-05  0.
-2.11559578165259e-09 1.5076350089399544e-05  0.
-1.4219226560579136e-08 1.5075265536253615e-05  0.
-7.543344844114596e-08 1.5068760856929209e-05  0.
-3.067088863778649e-07 1.503858547416602e-05  0.
-9.272265696021525e-07 1.4935014387270967e-05  0.
-2.0476241204082258e-06 1.469379936141876e-05  0.
-3.4219823849551305e-06 1.441475148318803e-05  0.
-4.916948170867425e-06 1.458197284704853e-05  0.
-6.493055421241145e-06 1.505447403226897e-05  0.
-7.699440632048273e-06 1.5047257237122525e-05  0.
0.0 1.7450000000000028e-05  0.
-6.299206161355083e-22 1.7450000000000028e-05  0.
-2.5694830315735386e-20 1.7450000000000028e-05  0.
-1.039877110806551e-18 1.7450000000000028e-05  0.
-2.482083739571959e-17 1.7450000000000028e-05  0.
-5.243146315020377e-16 1.7450000000000028e-05  0.
-9.757058367186145e-15 1.7450000000000028e-05  0.
-1.5853312173468153e-13 1.7450000000000028e-05  0.
-2.2258047326231656e-12 1.7450000000000028e-05  0.
-2.6677666040456055e-11 1.7450000000000028e-05  0.
-2.690624312558461e-10 1.7450000000000028e-05  0.
-2.2444860222792507e-09 1.7450000000000028e-05  0.
-1.516612635927732e-08 1.7450000000000028e-05  0.
-8.094380053002203e-08 1.7450000000000028e-05  0.
-3.3127640233395064e-07 1.7450000000000028e-05  0.
-1.0078314708095961e-06 1.7450000000000028e-05  0.
-2.2320666283249234e-06 1.7450000000000028e-05  0.
-3.6784798250828356e-06 1.7450000000000028e-05  0.
-5.042788818379223e-06 1.7450000000000028e-05  0.
-6.706707496154104e-06 1.7450000000000028e-05  0.
-7.877324935885101e-06 1.7450000000000028e-05  0.
</DataArray>
<DataArray type="Float64" Name="sigma_xx" NumberOfComponents="1" format="ascii" >
6.217248937900875e-07 
6.217248937900875e-07 
6.217248937900875e-07 
6.217248937900875e-07 
6.217248937900875e-07 
6.217248937900875e-07 
6.217248937900875e-07 
6.217248937900875e-07 
6.217248937900875e-07 
6.217248937900875e-07 
6.217248937900875e-07 
6.217248937900875e-07 
6.217248937900875e-07 
6.217248937900875e-07 
6.217248937900875e-07 
6.217248937900875e-07 
6.217248937900875e-07 
6.217248937900875e-07 
6.217248937900875e-07 
4.773959005888171e-07 
3.3306690738754686e-07 
1.2123635428906706e-05 
1.2123635428906706e-05 
1.2123635428906706e-05 
1.2123635428906706e-05 
1.2123635428906706e-05 
1.2123635428906706e-05 
1.2123635428906706e-05 
1.2123635428906706e-05 
1.2123635428906706e-05 
1.2123635428906706e-05 
1.2123635428906706e-05 
1.2123635428906706e-05 
1.197375532058231e-05 
1.1740608485411027e-05 
1.1429746038515983e-05 
1.0969003483296543e-05 
1.0191847366058934e-05 
9.10382880192628e-06 
7.710498906021709e-06 
5.467848396278894e-06 
4.074518500374323e-06 
0.0002866151760372303 
0.0002866151760372303 
0.0002866151760372303 
0.0002866151760372303 
0.0002866151760372303 
0.0002866151760372303 
0.0002866151760372303 
0.0002866151760372303 
0.00028654301154062967 
0.00028639313143230527 
0.00028593238887708583 
0.00028471114354999816 
0.00028219093728409906 
0.0002777278407251059 
0.0002700117907039611 
0.0002578770530448081 
0.0002396804976712018 
0.0002143896171702408 
0.00018111068200710173 
0.0001286359907481937 
9.514611321037586e-05 
0.005897371480045875 
0.005897371480045875 
0.005897371480045875 
0.005897371480045875 
0.005897371480045875 
0.005897371480045875 
0.005897299315549274 
0.005896849675224301 
0.0058954174875225345 
0.005891559462511962 
0.005881906073312846 
0.005859857044043791 
0.005814615455790316 
0.005729589025449398 
0.005580857997955489 
0.005340444753088034 
0.004978012446699152 
0.004465749992021982 
0.0037797709406817135 
0.0026854407586540665 
0.0019805934670102934 
0.10654654936104177 
0.10654654936104177 
0.10654654936104177 
0.10654654936104177 
0.10654654936104177 
0.10654647719654517 
0.10654521709341222 
0.10654006010746284 
0.10652270177047282 
0.10647017156806268 
0.10633046665375898 
0.10599877642292196 
0.10528800609144182 
0.10389887838968545 
0.10140542849867981 
0.09727072480814056 
0.09090551089663276 
0.08176651578040148 
0.06935702012711428 
0.04928044083918335 
0.03628883860073982 
1.677145955447656 
1.6771460331632677 
1.6771461108788794 
1.6771460331632677 
1.677145727851936 
1.6771443178686947 
1.677134908728561 
1.67709023335405 
1.6769131083727014 
1.6763239130135328 
1.674633415271742 
1.6703724958766482 
1.6607763553277972 
1.6412564474155285 
1.6050461126848599 
1.543363281619747 
1.4462951669624853 
1.3044631652636691 
1.1089500762118116 
0.7877361596353435 
0.5788562407182949 
22.758312789861172 
22.758312867576784 
22.758312945292396 
22.758312867576784 
22.75831205156286 
22.75830506270892 
22.75825070063852 
22.757929390992963 
22.75646514560136 
22.751003875276503 
22.733928956020215 
22.687733269854952 
22.577788783006973 
22.343777483779796 
21.893715779208726 
21.10413096501062 
19.832037329026157 
17.93784124015651 
15.283602805560287 
10.84903444303897 
7.949621150249438 
262.9059830505652 
262.9059830505652 
262.9059830505652 
262.9059829006851 
262.9059804193367 
262.9059523806542 
262.905698789062 
262.9039162205248 
262.8942222138163 
262.8532634219026 
262.71095539542864 
262.2946247532453 
261.2379893796034 
258.87495744281165 
254.14357207598204 
245.57718601991843 
231.42244356677548 
209.92094121874408 
179.25487892367357 
127.07253734256514 
92.76125882418103 
2547.2386848690567 
2547.2386847913413 
2547.238684713626 
2547.238684202923 
2547.2386763258905 
2547.238579925225 
2547.2376067259265 
2547.229737465128 
2547.1797301113147 
2546.9327147531467 
2545.972798639883 
2542.88696063809 
2534.493516304081 
2514.633042913216 
2473.136167110978 
2395.3960643779965 
2263.5425440620243 
2059.0488333138696 
1761.869028146789 
1246.0917253626076 
904.813866337006 
20328.842500827443 
20328.842500672014 
20328.84250051658 
20328.8424991399 
20328.842477601575 
20328.842193356726 
20328.839038391547 
20328.810474146136 
20328.603715252793 
20327.42818004473 
20322.203628486684 
20303.691283043983 
20249.10290312209 
20112.154715101744 
19812.34028290701 
19231.120581786327 
18218.700148850403 
16616.46481669609 
14242.225574670469 
10034.337938574774 
7232.827324699095 
130700.69616298858 
130700.69616298858 
130700.6961628387 
130700.69615949139 
130700.69610777718 
130700.69537233772 
130700.68654119078 
130700.59889105363 
130699.8932523173 
130695.37266310323 
130672.64596260671 
130582.76976583013 
130295.57936808652 
129527.3369561478 
127767.88300225546 
124238.50712843517 
117943.66981432989 
107799.63622075116 
92481.92185762057 
64751.77074345137 
46168.11982614542 
658202.7764620465 
658202.7764621243 
658202.7764618356 
658202.7764551577 
658202.7763430362 
658202.7746495241 
658202.7529501485 
658202.5207426177 
658200.4816598818 
658186.066922392 
658105.4753881264 
657752.3910818199 
656527.2009622311 
653047.8037863494 
644728.0188856428 
627573.3111583857 
596437.4433526513 
545705.6675468972 
467877.28524249315 
324219.90560401446 
227420.78986442415 
2502548.6993053285 
2502548.6993053285 
2502548.699304679 
2502548.6992925163 
2502548.699071027 
2502548.695565969 
2502548.648178947 
2502548.108734925 
2502543.0230722725 
2502504.0524239778 
2502265.9888702244 
2501125.0908218618 
2496850.3095697807 
2484073.3831207626 
2452479.2354005557 
2386345.911853673 
2265958.050248609 
2070532.7974217972 
1768574.4394408474 
1204137.0099438112 
822642.0113500328 
6840030.83858211 
6840030.83858211 
6840030.838580949 
6840030.838559683 
6840030.838160747 
6840030.831596698 
6840030.738827388 
6840029.627871617 
6840018.530021978 
6839927.715469513 
6839331.117097663 
6836247.192132192 
6823879.156586227 
6785247.546829616 
6688358.416857671 
6486124.727950693 
6126927.524637282 
5561468.966277079 
4699425.828937657 
3097777.520239599 
2017734.793020358 
12657134.008152222 
12657134.008152144 
12657134.0081504 
12657134.008116517 
12657134.007458739 
12657133.996280905 
12657133.83247787 
12657131.788395366 
12657110.38962803 
12656925.746831927 
12655639.12191043 
12648561.008482821 
12618477.155584186 
12520863.670780847 
12275865.619429903 
11780547.69865772 
10950020.331823245 
9740864.930899922 
7991833.865143096 
4921776.749296719 
2898316.5404257583 
15221662.11901858 
15221662.119018504 
15221662.119016038 
15221662.118966 
15221662.117969053 
15221662.100581378 
15221661.838231644 
15221658.454372501 
15221621.677675845 
15221290.625413863 
15218872.544082573 
15204882.832197763 
15142480.53437078 
14933197.917640615 
14410644.945830997 
13413798.89936961 
11890072.574836675 
9951476.22703055 
7456136.115607428 
3828283.5568578998 
1647858.6486367164 
13387928.115066634 
13387928.115066634 
13387928.11506338 
13387928.114994375 
13387928.113599584 
13387928.08877265 
13387927.705451697 
13387922.631120004 
13387865.837927314 
13387337.384309454 
13383332.182435477 
13359218.60088131 
13247353.970421175 
12861289.625967536 
11902333.895920767 
10201114.056219421 
7930440.693237983 
5478400.567391828 
2926654.793296743 
594212.7729376806 
-404898.81445308775 
12869918.34276012 
12869918.34276012 
12869918.342756072 
12869918.342667758 
12869918.340861522 
12869918.308207612 
12869917.795175754 
12869910.86919861 
12869831.617136236 
12869075.566500105 
12863183.618453398 
12826621.442860385 
12651764.148339335 
12033787.887569748 
10501892.64172263 
7974067.21689881 
5172973.220527185 
2668450.777591137 
732957.6548840066 
-87573.46605788241 
-146442.52607957786 
13630057.285809278 
13630057.285809278 
13630057.28580466 
13630057.285699975 
13630057.28353035 
13630057.24387769 
13630056.613244109 
13630047.98214153 
13629947.682131935 
13628974.06044018 
13621237.741106158 
13572200.83383957 
13332530.241642412 
12470087.96328027 
10329902.512896683 
6996277.050621785 
4043824.5322171357 
2124557.2720664386 
746021.5387245785 
122463.83833867987 