<?xml version="1.0"?>
<VTKFile type="UnstructuredGrid" version="0.1" byte_order="LittleEndian" compressor="vtkZLibDataCompressor">
<UnstructuredGrid>
<Piece NumberOfPoints="441" NumberOfCells="400">
<PointData>
<DataArray type="Float64" Name="displacement" NumberOfComponents="3" format="ascii" >
0.0 8.560285679412449e-30  0.
1.973748123310313e-29 1.0538780566471174e-29  0.
2.3669273965352208e-29 -5.389517381000751e-30  0.
1.56845771600987e-29 -3.366469815633322e-30  0.
6.329461820500285e-30 -5.7764664899422534e-30  0.
-5.57446477806042e-31 -1.1310104989758263e-30  0.
-7.709863742686038e-30 -6.0179793370974994e-30  0.
-3.4514406403532114e-29 -2.0714759944247622e-29  0.
-1.189458192744036e-28 -6.411679577517597e-29  0.
-4.433324938869692e-28 -2.583897245392824e-28  0.
-1.6301788831777257e-27 -9.29827925711782e-28  0.
-5.469120719652187e-27 -2.886839781759699e-27  0.
-1.91999724602329e-26 -1.1283335862088785e-26  0.
-4.5971596829086754e-26 -1.470650392113374e-26  0.
-9.520210759529071e-26 -3.6620757580248525e-26  0.
-1.4802027437427601e-25 -1.2545189656302113e-26  0.
-1.8760763696634203e-25 -2.864990692892579e-26  0.
-2.138613906300217e-25 2.45880236758693e-28  0.
-2.15349092743011e-25 4.638349652350689e-27  0.
-1.4942754819020932e-25 4.070392338295492e-26  0.
-9.934975302894634e-26 1.2476858436896244e-25  0.
0.0 2.224918741145641e-27  0.
3.398058585135484e-27 8.527034579966845e-28  0.
2.9426953063799515e-27 -7.64343874456991e-28  0.
1.2703355934609632e-27 -1.1354487906818279e-27  0.
5.761107743638706e-29 -6.668924754051613e-29  0.
-3.549532841644191e-29 -3.3440405859732786e-29  0.
-2.988256813957811e-28 -2.3688470608320196e-28  0.
-2.113878058507426e-27 -1.5929548679622483e-27  0.
-2.4097583385401758e-26 -2.1288350110356027e-26  0.
-1.335384558674692e-25 -6.095562772383646e-26  0.
-2.083443810430739e-25 -1.5693801627767749e-26  0.
-3.591274284500072e-25 -1.6730124591665309e-25  0.
-1.4801559199734313e-24 -1.0037147269650442e-24  0.
-7.662993781817425e-24 -3.864959938961754e-24  0.
-1.333672231090634e-23 -1.4070185095468761e-24  0.
-2.3260325844547585e-23 -6.151489503541391e-24  0.
-2.700202387312965e-23 2.2495240356793644e-24  0.
-3.1505118865377427e-23 -6.637191348827179e-24  0.
-4.2650215311502596e-23 -1.2823503136773429e-24  0.
-3.4800117243705087e-23 2.104185348250089e-24  0.
-3.5519813458700265e-23 3.2520237164065465e-23  0.
0.0 5.972805387202898e-20  0.
2.6811940327322396e-25 5.96725052718951e-20  0.
2.733419068472951e-25 5.967187725353698e-20  0.
9.508109901733281e-27 5.967214323068726e-20  0.
-1.4885687323449316e-28 5.967215504657853e-20  0.
-2.0625270873531572e-27 5.967215318360619e-20  0.
-1.6876728002584102e-26 5.967214185056702e-20  0.
-1.5186684714185147e-25 5.967202891280908e-20  0.
-8.96271793264679e-25 5.967145402404132e-20  0.
-8.307263183828705e-23 5.960758006326882e-20  0.
-9.429697569039914e-23 5.914465919759734e-20  0.
-7.713805060172941e-23 5.898861334762998e-20  0.
-1.4008090898954027e-22 5.893866596875908e-20  0.
-5.6380382632769345e-22 5.863829628154665e-20  0.
-1.283865972271047e-21 5.588755083548636e-20  0.
-2.1477303190281814e-21 5.362332560992914e-20  0.
-2.2280585238524073e-21 4.7651405140867873e-20  0.
-3.1214368302353448e-21 4.3843989672793676e-20  0.
-4.734179160944855e-21 3.5924282984684815e-20  0.
-4.9948965640577405e-21 2.61865631531207e-20  0.
-1.4059549857047355e-20 2.6945114993062938e-20  0.
0.0 2.0068758011138502e-18  0.
3.4381446081076067e-23 2.006418926303345e-18  0.
4.549840787614654e-25 2.0064387518993763e-18  0.
-8.847242032172883e-26 2.0064399034134486e-18  0.
-2.224498393271521e-27 2.0064398244747024e-18  0.
-5.60446761506457e-26 2.0064397836855438e-18  0.
-1.6180803570938288e-24 2.006438415097095e-18  0.
-8.95517997603573e-24 2.0064339996559672e-18  0.
-6.63924327039694e-23 2.006390971741721e-18  0.
-5.100719338349864e-22 2.006245537832959e-18  0.
-1.7052166875678896e-21 2.0045487312331717e-18  0.
-3.80417559635446e-21 1.9991132213231913e-18  0.
-9.991483676865882e-21 1.9860085338016696e-18  0.
-1.9246048471523333e-20 1.9578933494117767e-18  0.
-2.979778386777175e-20 1.915148510213786e-18  0.
-5.145791604218818e-20 1.8366408243097224e-18  0.
-7.646417679672992e-20 1.7210251545603008e-18  0.
-1.051881516702177e-19 1.5473343214233149e-18  0.
-1.4047402560766203e-19 1.319230721664187e-18  0.
-1.7544839511233963e-19 1.0403850070066946e-18  0.
-5.577433843133921e-19 1.0600616404514383e-18  0.
0.0 5.349558510165874e-17  0.
-1.055762652838283e-22 5.3496579393227494e-17  0.
-1.2861029473203095e-23 5.349663290396158e-17  0.
2.3732766231551e-25 5.349662062904019e-17  0.
-1.4059464800903156e-25 5.349662064150361e-17  0.
-2.191562822986275e-24 5.349661870026949e-17  0.
-3.169608071238544e-23 5.3496588631965724e-17  0.
-6.688388657147353e-22 5.349562432751408e-17  0.
-3.3212003242778066e-21 5.349191495282727e-17  0.
-1.4428345243164448e-20 5.3473857618867994e-17  0.
-3.882503449076168e-20 5.342677332609495e-17  0.
-9.732771355115452e-20 5.3298124077830597e-17  0.
-2.1511699126635283e-19 5.3017691711749155e-17  0.
-4.254133168481825e-19 5.2434321883180303e-17  0.
-7.711077727888625e-19 5.132791765641676e-17  0.
-1.28627475667054e-18 4.942864804511148e-17  0.
-1.9786962133192768e-18 4.640977912573793e-17  0.
-2.8209037872351217e-18 4.196860080847856e-17  0.
-3.759391532498663e-18 3.5875378674752084e-17  0.
-4.9208058174005114e-18 2.834601071240127e-17  0.
-1.5321275214866507e-17 2.886185790768641e-17  0.
0.0 1.254779406308027e-15  0.
-4.781171863041602e-22 1.254774628781094e-15  0.
2.1217699409466782e-23 1.2547741584179975e-15  0.
-4.646131494850848e-24 1.2547741484391915e-15  0.
-9.661374205321236e-25 1.2547741434185642e-15  0.
-3.9739182077935284e-23 1.2547741020974497e-15  0.
-1.141314827791417e-21 1.254772935832392e-15  0.
-1.3599305405468862e-20 1.254759659183584e-15  0.
-6.384192457411515e-20 1.2546893819721653e-15  0.
-2.283698839340124e-19 1.2544381698900896e-15  0.
-6.961167931589337e-19 1.2536155400751645e-15  0.
-1.8241932303399797e-18 1.251362532749363e-15  0.
-4.2492574085919176e-18 1.2458765307855448e-15  0.
-8.853606038835544e-18 1.2340055737310525e-15  0.
-1.6693471304183617e-17 1.2107508867562286e-15  0.
-2.87180291508119e-17 1.1693083480379978e-15  0.
-4.5357800369976073e-17 1.1015077024238773e-15  0.
-6.607311562062997e-17 9.993307838667436e-16  0.
-8.935654792980516e-17 8.569816844223724e-16  0.
-1.1874926379057313e-16 6.792885991939414e-16  0.
-3.692266745507282e-16 6.941682928143813e-16  0.
0.0 2.5710433294983778e-14  0.
-1.668360021597949e-21 2.5710440698873315e-14  0.
-4.459385113460429e-22 2.5710441841282266e-14  0.
4.846501791445748e-24 2.5710440846618658e-14  0.
-6.777032098837433e-24 2.5710440832740597e-14  0.
-7.73873746703213e-22 2.5710439541901573e-14  0.
-1.420024595487657e-20 2.5710426980431855e-14  0.
-1.3616897612673082e-19 2.571030465689638e-14  0.
-7.205985193629446e-19 2.570960201446714e-14  0.
-2.9922100753106916e-18 2.5706431725043955e-14  0.
-1.0084842067148175e-17 2.5695103861133402e-14  0.
-2.896679424179661e-17 2.566083137698184e-14  0.
-7.203552727062008e-17 2.5571386310396926e-14  0.
-1.5865871967838292e-16 2.5365663410251842e-14  0.
-3.126374937034053e-16 2.4943181687512657e-14  0.
-5.575726356808151e-16 2.4159820739113152e-14  0.
-9.059440814674473e-16 2.2838171719628164e-14  0.
-1.3502226344519586e-15 2.0795904968878133e-14  0.
-1.857734474174088e-15 1.7895466899512898e-14  0.
-2.5091374145270594e-15 1.4234001561932487e-14  0.
-7.783990603164682e-15 1.4601471845727798e-14  0.
0.0 4.555959949599134e-13  0.
-5.424607094577708e-21 4.55595989417949e-13  0.
4.0062885268543245e-22 4.555959865264745e-13  0.
-5.49407575410779e-24 4.555959876492632e-13  0.
-5.948734109547181e-23 4.555959875781597e-13  0.
-4.5017225407919365e-21 4.555959845091653e-13  0.
-8.83892206841849e-20 4.555959186454062e-13  0.
-8.799214832175835e-19 4.555952318534109e-13  0.
-6.225206227032409e-18 4.555896915917723e-13  0.
-3.066538089484006e-17 4.555596780465578e-13  0.
-1.196769578853108e-16 4.554337407408938e-13  0.
-3.799523467466897e-16 4.550074313476843e-13  0.
-1.0284196976035393e-15 4.537895089047776e-13  0.
-2.4118011780973046e-15 4.5078570341776507e-13  0.
-5.007925570464665e-15 4.44259765479522e-13  0.
-9.296149955051527e-15 4.316092464501293e-13  0.
-1.5607481481328153e-14 4.09490986001026e-13  0.
-2.3845398542717546e-14 3.743430129292439e-13  0.
-3.346312665051655e-14 3.233482490136155e-13  0.
-4.601662576869731e-14 2.5819857819160363e-13  0.
-1.422346517913227e-13 2.660659088950726e-13  0.
0.0 6.900623291227565e-12  0.
-3.421828339154013e-21 6.900623287127885e-12  0.
7.907528007162256e-22 6.900623288690917e-12  0.
-2.529823542413768e-22 6.90062328791744e-12  0.
-2.2046809458510546e-22 6.900623287377114e-12  0.
-2.3818204236855103e-20 6.9006232672335096e-12  0.
-3.6808487693756734e-19 6.9006230397271465e-12  0.
-4.258392861395434e-18 6.9006200746648385e-12  0.
-3.7624283323833446e-17 6.900590832236332e-12  0.
-2.436156285892777e-16 6.90037648725118e-12  0.
-1.1149563741483013e-15 6.899294182983701e-12  0.
-4.066499043958288e-15 6.8950386807601575e-12  0.
-1.2092976321514377e-14 6.881505501343773e-12  0.
-3.070923945164846e-14 6.845147279294426e-12  0.
-6.756538007304559e-14 6.760818315847975e-12  0.
-1.3161184777222264e-13 6.5885958175233726e-12  0.
-2.289989055296989e-13 6.275011132240371e-12  0.
-3.60122994628098e-13 5.760618682605524e-12  0.
-5.162880117365223e-13 4.996313263329361e-12  0.
-7.249586153485199e-13 4.00760540750695e-12  0.
-2.2273177291896764e-12 4.152210211564325e-12  0.
0.0 8.811238359669297e-11  0.
1.094461689257278e-21 8.811238360795604e-11  0.
1.7399632653863678e-22 8.811238361140893e-11  0.
-2.580278327277863e-22 8.81123836114913e-11  0.
-1.92446594760518e-21 8.811238360943204e-11  0.
-7.715486166168678e-20 8.81123835736875e-11  0.
-1.2415357561857805e-18 8.811238287591761e-11  0.
-1.6372192028607086e-17 8.811237284263074e-11  0.
-1.7164473284171578e-16 8.811225594956396e-11  0.
-1.3739040192319739e-15 8.81112059789568e-11  0.
-8.07771771116277e-15 8.810419523351675e-11  0.
-3.4140267707585377e-14 8.807141417992546e-11  0.
-1.1561941210290002e-13 8.795134705498864e-11  0.
-3.2023076890148717e-13 8.759465698639734e-11  0.
-7.584708676852519e-13 8.669855811613948e-11  0.
-1.5565553607668405e-12 8.475493211815378e-11  0.
-2.8278801124391137e-12 8.10447666772207e-11  0.
-4.5862010325539626e-12 7.473644043942376e-11  0.
-6.741875447641085e-12 6.5110382531248e-11  0.
-9.687396344002991e-12 5.249979812561673e-11  0.
-2.9503041657026716e-11 5.4759980474346155e-11  0.
0.0 9.329808060431994e-10  0.
-2.980573607271824e-21 9.329808060435533e-10  0.
1.434885862394905e-22 9.329808060393212e-10  0.
-4.8846786189643115e-23 9.329808060401583e-10  0.
-7.410738809583325e-21 9.3298080603671e-10  0.
-1.9969809590422742e-19 9.329808059469317e-10  0.
-3.561088746982779e-18 9.329808041949675e-10  0.
-5.221284018747646e-17 9.329807760636116e-10  0.
-6.239808750602084e-16 9.329804047710028e-10  0.
-5.8806039067956054e-15 9.329764957034315e-10  0.
-4.2213245455746825e-14 9.32944864065209e-10  0.
-2.2347491792930392e-13 9.32754173876318e-10  0.
-8.659929815691247e-13 9.31934527881228e-10  0.
-2.702852748055608e-12 9.291582042132814e-10  0.
-6.9241089161316955e-12 9.215059896903975e-10  0.
-1.5188296634628514e-11 9.036521458810176e-10  0.
-2.8876205728132673e-11 8.676832594162728e-10  0.
-4.8609034807551396e-11 8.039542138954986e-10  0.
-7.334740394810664e-11 7.03804560316603e-10  0.
-1.083308054078065e-10 5.710475697201586e-10  0.
-3.2535556831576713e-10 6.006253465154178e-10  0.
0.0 8.030755722246203e-09  0.
-2.8709984379572436e-21 8.030755722238938e-09  0.
-8.617740916271204e-22 8.030755722246249e-09  0.
-2.036514423907146e-22 8.030755722244504e-09  0.
-1.8591744225605258e-20 8.030755722235413e-09  0.
-4.666584703850762e-19 8.030755722050555e-09  0.
-8.886569762992058e-18 8.03075571820348e-09  0.
-1.4207722053919667e-16 8.030755651139099e-09  0.
-1.8809872368922954e-15 8.030754675523589e-09  0.
-2.010275596101982e-14 8.030743105024196e-09  0.
-1.6853127291686873e-13 8.030634192696854e-09  0.
-1.0734562256361562e-12 8.029848556368383e-09  0.
-5.065446897667713e-12 8.025618616861716e-09  0.
-1.784187202531747e-11 8.009055834969787e-09  0.
-5.084841822209738e-11 7.957642636482613e-09  0.
-1.194719593280546e-10 7.82728352867673e-09  0.
-2.4062405690915536e-10 7.547227010114317e-09  0.
-4.205713519276964e-10 7.027675956281229e-09  0.
-6.549254308190491e-10 6.184403438650835e-09  0.
-9.962480617857409e-10 5.056345354163882e-09  0.
-2.932865676799262e-09 5.376164128766601e-09  0.
0.0 5.484204596748333e-08  0.
-4.1710348948038154e-21 5.484204596747541e-08  0.
2.422286859079283e-21 5.484204596747181e-08  0.
-1.1209363912765547e-21 5.484204596747167e-08  0.
-3.8448213769822814e-20 5.484204596746025e-08  0.
-9.762665629231975e-19 5.484204596711736e-08  0.
-1.9634736301296345e-17 5.484204595970038e-08  0.
-3.3648835530063856e-16 5.484204582155888e-08  0.
-4.832908389078143e-15 5.4842043650406166e-08  0.
-5.699097814276385e-14 5.484201537528764e-08  0.
-5.387035545823925e-13 5.4841717171313765e-08  0.
-3.968316424467721e-12 5.483923732594109e-08  0.
-2.213866491677025e-11 5.482349639120136e-08  0.
-9.200297706030245e-11 5.47488115283727e-08  0.
-2.9138845433827387e-10 5.4485474597510024e-08  0.
-7.495624066616677e-10 5.37450677493522e-08  0.
-1.5985181146980846e-09 5.203702980244666e-08  0.
-2.926707239260986e-09 4.869703492786107e-08  0.
-4.6983788200465345e-09 4.30918390278638e-08  0.
-7.403737297981756e-09 3.557827361123248e-08  0.
-2.1115387051575272e-08 3.8370821433251475e-08  0.
0.0 2.8828435358481415e-07  0.
-5.736354652040744e-21 2.882843535848181e-07  0.
1.8960502952624813e-21 2.882843535848082e-07  0.
-1.0690261263339875e-21 2.8828435358480743e-07  0.
-7.146540543783721e-20 2.882843535847881e-07  0.
-1.8431654056157442e-18 2.8828435358422737e-07  0.
-3.884896672691272e-17 2.882843535715563e-07  0.
-7.038736082639032e-16 2.882843533228797e-07  0.
-1.0790287292827622e-14 2.882843491655691e-07  0.
-1.375329732954851e-13 2.882842908917063e-07  0.
-1.427573651681228e-12 2.882836191402019e-07  0.
-1.1774774979037815e-11 2.882773988961721e-07  0.
-7.506815259676939e-11 2.882323713132458e-07  0.
-3.6099269595892393e-10 2.879849664662384e-07  0.
-1.3021095522063862e-09 2.869679129711586e-07  0.
-3.6572534802674657e-09 2.8378785449507956e-07  0.
-8.367945605468129e-09 2.758158431130439e-07  0.
-1.600245178892072e-08 2.5934943010451746e-07  0.
-2.661052162350538e-08 2.3080793559939645e-07  0.
-4.344779030034461e-08 1.9309993334785986e-07  0.
-1.1818880977013712e-07 2.123867086094852e-07  0.
0.0 1.1235205855621526e-06  0.
-4.175973965189133e-21 1.1235205855621573e-06  0.
1.3375389149922292e-21 1.1235205855621558e-06  0.
-2.0284658282453538e-21 1.123520585562159e-06  0.
-1.2488804714956372e-19 1.1235205855621221e-06  0.
-3.163313209772084e-18 1.1235205855613128e-06  0.
-6.933279165609764e-17 1.1235205855421089e-06  0.
-1.3136674594744514e-15 1.1235205851492683e-06  0.
-2.121597400930653e-14 1.12352057825003e-06  0.
-2.875842132144138e-13 1.1235204757490918e-06  0.
-3.2124028556756226e-12 1.1235192091480063e-06  0.
-2.892713573383872e-11 1.1235064595400525e-06  0.
-2.0471531512637072e-10 1.1234044458503944e-06  0.
-1.1081646517245436e-09 1.12277366106597e-06  0.
-4.502223130051198e-09 1.1198376082419242e-06  0.
-1.3847784176233195e-08 1.1096090446445983e-06  0.
-3.387414630388887e-08 1.0818579129903109e-06  0.
-6.779066422941182e-08 1.0213319521548691e-06  0.
-1.1640364029647436e-07 9.140649599728646e-07  0.
-1.9701704387932814e-07 7.79679162583152e-07  0.
-4.971360953642189e-07 8.8142633814582e-07  0.
0.0 3.1112814318229766e-06  0.
-3.5203425427813234e-21 3.1112814318229724e-06  0.
4.040981688323664e-21 3.111281431822979e-06  0.
-2.652485230413073e-21 3.1112814318229783e-06  0.
-1.9361611072818e-19 3.1112814318229423e-06  0.
-4.956554475463615e-18 3.1112814318218793e-06  0.
-1.1212202013119183e-16 3.1112814317962875e-06  0.
-2.201453928858878e-15 3.111281431254127e-06  0.
-3.7052201951247265e-14 3.111281421351809e-06  0.
-5.271373104263771e-13 3.1112812673103458e-06  0.
-6.2345909203255496e-12 3.1112792579126816e-06  0.
-6.009201863410059e-11 3.111257676886928e-06  0.
-4.609268113593893e-10 3.1110711666506127e-06  0.
-2.739095212664063e-09 3.1098077438610968e-06  0.
-1.2283714591633676e-08 3.103299077480066e-06  0.
-4.110717610932007e-08 3.078384735232195e-06  0.
-1.0559029540473816e-07 3.0070484421576167e-06  0.
-2.2042276110769624e-07 2.8453159877711517e-06  0.
-3.8777255450541385e-07 2.560515922106627e-06  0.
-6.764844739337861e-07 2.2526708942828977e-06  0.
-1.5140223525102158e-06 2.6441102599747967e-06  0.
0.0 5.965374048862165e-06  0.
-4.680811659866961e-21 5.965374048862158e-06  0.
4.883639966481798e-21 5.965374048862159e-06  0.
-4.1245756894976155e-21 5.965374048862161e-06  0.
-2.720621978869372e-19 5.965374048862123e-06  0.
-7.111667554083788e-18 5.965374048860923e-06  0.
-1.6486571766984172e-16 5.965374048831184e-06  0.
-3.3281836531241678e-15 5.965374048184462e-06  0.
-5.783737288976743e-14 5.96537403600206e-06  0.
-8.540825628809119e-13 5.96537383961009e-06  0.
-1.055347410689922e-11 5.965371167727513e-06  0.
-1.0712033471821771e-10 5.965341019025208e-06  0.
-8.735736692662763e-10 5.965064537729901e-06  0.
-5.575073110663649e-09 5.963056924969424e-06  0.
-2.70504350130425e-08 5.951850097700627e-06  0.
-9.736095368331922e-08 5.9053684612558294e-06  0.
-2.604828252277991e-07 5.765386089072958e-06  0.
-5.500323611675789e-07 5.453792482469058e-06  0.
-9.908944936096604e-07 4.9410828648666855e-06  0.
-1.7328616269218216e-06 4.582380041330495e-06  0.
-3.2551768588408122e-06 5.607820342454229e-06  0.
0.0 8.409613110571722e-06  0.
-3.8417622068520185e-21 8.409613110571736e-06  0.
3.459633897056476e-21 8.409613110571736e-06  0.
-7.860034341409796e-21 8.409613110571734e-06  0.
-3.5100243667711943e-19 8.409613110571688e-06  0.
-9.378993387123864e-18 8.409613110570523e-06  0.
-2.214877385272192e-16 8.409613110540866e-06  0.
-4.565079969603246e-15 8.409613109882756e-06  0.
-8.12506172536955e-14 8.409613097198812e-06  0.
-1.233523261974748e-12 8.409612887198495e-06  0.
-1.57436186849548e-11 8.409609940550075e-06  0.
-1.660137542277028e-10 8.409575443219561e-06  0.
-1.4162410032478874e-09 8.409245109632552e-06  0.
-9.529252807957646e-09 8.406717183210155e-06  0.
-4.908258423980775e-08 8.391725922779065e-06  0.
-1.8756479215303105e-07 8.325280901378164e-06  0.
-5.220117673427783e-07 8.114845785447898e-06  0.
-1.0964158634189559e-06 7.66252503325989e-06  0.
-1.9712064769840245e-06 7.062286597701673e-06  0.
-3.3219526367406086e-06 7.094505157754031e-06  0.
-5.019339486511301e-06 8.724127142463568e-06  0.
0.0 1.0597919943429025e-05  0.
-3.207758764494213e-21 1.0597919943429023e-05  0.
1.1793289780778133e-21 1.059791994342902e-05  0.
-1.0995485231929914e-20 1.0597919943429026e-05  0.
-4.228897004005767e-19 1.0597919943428987e-05  0.
-1.1412988961072332e-17 1.0597919943428044e-05  0.
-2.729938689955128e-16 1.059791994340375e-05  0.
-5.708953586969212e-15 1.05979199428574e-05  0.
-1.0331062902651461e-13 1.0597919932160552e-05  0.
-1.5988206496344264e-12 1.0597919751834465e-05  0.
-2.086744497956546e-11 1.0597917167044703e-05  0.
-2.2590243177115433e-10 1.0597886147974153e-05  0.
-1.9879132072399006e-09 1.0597580017075302e-05  0.
-1.3875269246320586e-08 1.0595152740410307e-05  0.
-7.456877089910076e-08 1.0580109861944536e-05  0.
-2.982872549876458e-07 1.0510010806695929e-05  0.
-8.617413688578615e-07 1.027806521378454e-05  0.
-1.8109980336969076e-06 9.792282539809383e-06  0.
-3.1103186964376816e-06 9.379213210376115e-06  0.
-4.825098689298237e-06 9.96082029058668e-06  0.
-6.074085577708987e-06 1.1292468115934046e-05  0.
0.0 1.3102336608810066e-05  0.
-2.415759319942367e-21 1.3102336608810076e-05  0.
3.682536404665966e-21 1.3102336608810079e-05  0.
-8.534958137066227e-21 1.3102336608810076e-05  0.
-4.700853293927913e-19 1.310233660881006e-05  0.
-1.2836000082222928e-17 1.3102336608809529e-05  0.
-3.0925565109491415e-16 1.3102336608795835e-05  0.
-6.522784179003376e-15 1.3102336608485223e-05  0.
-1.1919774472278174e-13 1.310233660234586e-05  0.
-1.8656086750374354e-12 1.3102336497698796e-05  0.
-2.4671230516341648e-11 1.3102334978690344e-05  0.
-2.712238125916249e-10 1.310231647044923e-05  0.
-2.430628306307383e-09 1.3102130590505453e-05  0.
-1.733630437908792e-08 1.3100623756416482e-05  0.
-9.559087181968661e-08 1.3091038529424636e-05  0.
-3.9380634016066724e-07 1.3044881037520735e-05  0.
-1.1712047609113482e-06 1.2886987738491879e-05  0.
-2.4775433582155296e-06 1.2564673779957468e-05  0.
-3.952194657781745e-06 1.243180493782758e-05  0.
-5.486193553547777e-06 1.3008373554138824e-05  0.
-6.766053323615665e-06 1.3420617763551734e-05  0.
0.0 1.5450000000000047e-05  0.
2.3396177992162006e-21 1.5450000000000047e-05  0.
5.232575232116108e-21 1.5450000000000047e-05  0.
-4.926862727318487e-21 1.5450000000000047e-05  0.
-4.880883566596923e-19 1.5450000000000047e-05  0.
-1.3342381128747815e-17 1.5450000000000047e-05  0.
-3.223365107468441e-16 1.5450000000000047e-05  0.
-6.817816880378951e-15 1.5450000000000047e-05  0.
-1.249925795804814e-13 1.5450000000000047e-05  0.
-1.963614134592254e-12 1.5450000000000047e-05  0.
-2.607988385296669e-11 1.5450000000000047e-05  0.
-2.881724295217252e-10 1.5450000000000047e-05  0.
-2.5980549723452235e-09 1.5450000000000047e-05  0.
-1.8664316379328435e-08 1.5450000000000047e-05  0.
-1.0380099343321215e-07 1.5450000000000047e-05  0.
-4.3206703390331894e-07 1.5450000000000047e-05  0.
-1.2995530833547698e-06 1.5450000000000047e-05  0.
-2.758132173259687e-06 1.5450000000000047e-05  0.
-4.231910546314516e-06 1.5450000000000047e-05  0.
-5.53237372032199e-06 1.5450000000000047e-05  0.
-7.142778567863044e-06 1.5450000000000047e-05  0.
</DataArray>
<DataArray type="Float64" Name="sigma_xx" NumberOfComponents="1" format="ascii" >
0.0 
0.0 
0.0 
0.0 
0.0 
0.0 
0.0 
0.0 
0.0 
0.0 
0.0 
0.0 
0.0 
0.0 
0.0 
0.0 
0.0 
0.0 
0.0 
0.0 
0.0 
0.0 
0.0 
0.0 
0.0 
0.0 
0.0 
0.0 
0.0 
0.0 
0.0 
0.0 
0.0 
0.0 
0.0 
0.0 
0.0 
0.0 
0.0 
0.0 
0.0 
0.0 
5.440092820663265e-06 
5.440092820663265e-06 
5.440092820663265e-06 
5.440092820663265e-06 
5.440092820663265e-06 
5.440092820663265e-06 
5.440092820663265e-06 
5.440092820663265e-06 
5.440092820663265e-06 
5.440092820663265e-06 
5.440092820663265e-06 
5.440092820663265e-06 
5.362377208939504e-06 
5.2846615972157434e-06 
5.212497100615108e-06 
4.979350265443825e-06 
4.507505479978134e-06 
3.896882816434298e-06 
3.3528735343679715e-06 
2.5257573810222303e-06 
1.9428902930940235e-06 
0.00014952483695651603 
0.00014952483695651603 
0.00014952483695651603 
0.00014952483695651603 
0.00014952483695651603 
0.00014952483695651603 
0.00014952483695651603 
0.00014944712134479227 
0.0001493694057330685 
0.00014937495684819163 
0.00014937495684819163 
0.00014884204979637156 
0.00014754308885756012 
0.00014553913629811172 
0.0001420030759646806 
0.00013583023594776472 
0.00012660428261312967 
0.00011365353103087722 
9.613421170229228e-05 
6.855072065548026e-05 
5.089262344881715e-05 
0.0035076164195402258 
0.0035076164195402258 
0.0035076164195402258 
0.0035076164195402258 
0.0035076164195402258 
0.0035076164195402258 
0.0035076164195402258 
0.0035073888238201776 
0.003506783752271757 
0.003505284951188513 
0.00350126594383937 
0.003490979727516218 
0.003468214604396279 
0.003424033279131321 
0.003344091670243187 
0.00320983795099039 
0.00300264257901972 
0.0027039759320501835 
0.0022969071089562467 
0.001638761348843331 
0.0012130962900869231 
0.07183937889010392 
0.07183937889010392 
0.07183937889010392 
0.07183937889010392 
0.07183937889010392 
0.07183937889010392 
0.07183908468100239 
0.07183751926653767 
0.07183100780849824 
0.07180859240563106 
0.07174245086893902 
0.07157243131494792 
0.071182720828844 
0.07037952998167893 
0.06887371228891934 
0.06628557147614342 
0.06218377479605405 
0.05615733433828039 
0.047828790927795226 
0.03414347693464491 
0.025245205925727973 
1.272155447651357 
1.272155447651357 
1.272155447651357 
1.272155447651357 
1.272155447651357 
1.2721552977712487 
1.2721531605919263 
1.2721398989778971 
1.2720744013705594 
1.2718152087032304 
1.270971472511206 
1.268618088356987 
1.2628888157450997 
1.2504720092731954 
1.2262500403981131 
1.1832635926634079 
1.1133701849352913 
1.0085533241888096 
0.8611875157438218 
0.6148559439367316 
0.45380009749962347 
19.24975616685031 
19.24975616685031 
19.24975616685031 
19.24975616685031 
19.24975616685031 
19.249755434103115 
19.249745669691613 
19.249664134912685 
19.249147298339146 
19.2467665582896 
19.237960824369786 
19.211087837200928 
19.140632723235733 
18.979187504930543 
18.649586530639077 
18.04365048485578 
17.030100468717883 
15.476027664940155 
13.249582719865312 
9.457089589215425 
6.963189780329056 
245.43902394924535 
245.43902394924532 
245.43902394924532 
245.43902394924532 
245.43902387708084 
245.439021040461 
245.43898306528246 
245.43859845627117 
245.4356222647557 
245.41849619197356 
245.34573184187272 
245.09588273380336 
244.38496342149554 
242.64262893369795 
238.9045532125155 
231.75163236244236 
219.41761355892535 
200.04420873409583 
171.7154969160805 
122.45531574306406 
89.84661602484674 
2593.026528918684 
2593.026528918684 
2593.026528918684 
2593.026528918684 
2593.026528485697 
2593.0265195372995 
2593.026392783137 
2593.02493448299 
2593.0117315775537 
2592.920330146685 
2592.4474577221345 
2590.6090257543638 
2584.795114490834 
2569.4799329040166 
2534.6321295693906 
2465.070189547335 
2341.0321771416548 
2141.2616528049257 
1842.6205200594563 
1311.539941953321 
957.7074795208414 
22239.54440647712 
22239.54440647712 
22239.54440647712 
22239.54440647712 
22239.54440517816 
22239.544381486005 
22239.54401893157 
22239.539408108736 
22239.49220231946 
22239.11335221262 
22236.793673569002 
22226.12146626223 
22188.526548597147 
22080.110959321602 
21818.06598826329 
21269.189447736804 
20257.346484342514 
18584.75222044908 
16026.559207207854 
11367.815163310086 
8240.17214743344 
150951.65914287273 
150951.65914287273 
150951.65914287273 
150951.65914280055 
150951.65913990844 
150951.6590850468 
150951.65818101435 
150951.6457036896 
150951.50485515123 
150950.2346032365 
150941.3168668427 
150893.70298344558 
150701.48588468827 
150095.69706003193 
148523.18275602456 
145076.07108146796 
138500.24636300467 
127380.60414580195 
109982.92587224564 
77532.12428022735 
55607.17719086392 
784868.7965169573 
784868.7965169573 
784868.7965169573 
784868.7965168185 
784868.7965112564 
784868.7963971919 
784868.7944010498 
784868.7649563365 
784868.4054668315 
784864.8483116669 
784837.0011135945 
784668.8357859896 
783899.8297074737 
781221.707945878 
773799.854707349 
756762.1607672351 
723417.1975164708 
666089.815697887 
574766.8714394748 
400807.3429787594 
282519.84047156776 
2994405.8325126246 
2994405.8325126246 
2994405.8325126246 
2994405.8325123414 
2994405.8325022943 
2994405.832287216 
2994405.828342815 
2994405.76692757 
2994404.9682459715 
2994396.4575443724 
2994323.80368629 
2993839.3362763785 
2991377.5106273564 
2981962.4676988386 
2954316.0211689416 
2888621.016691366 
2758586.1146339225 
2535242.802673642 
2177376.867616431 
1488645.79168216 
1019050.882427102 
7917408.494753328 
7917408.494753329 
7917408.494753329 
7917408.494752679 
7917408.49473598 
7917408.494367197 
7917408.487343083 
7917408.373084269 
7917406.809961745 
7917389.141242143 
7917227.581138239 
7916062.018641273 
7909607.181536089 
7882829.347719303 
7799994.7347956 
7601568.515881571 
7212824.150239028 
6568919.135632182 
5558556.678233476 
3654121.6674678335 
2367953.646857095 
13591061.40321597 
13591061.40321597 
13591061.40321597 
13591061.403214889 
13591061.403189398 
13591061.402612519 
13591061.39128185 
13591061.200424766 
13591058.482321884 
13591026.294616878 
13590715.673840187 
13588331.655004531 
13574194.839213021 
13511438.889591455 
13308060.513499336 
12823779.097613532 
11923620.844204612 
10541887.741317661 
8538762.52306743 
5121354.960253774 
2893872.544848589 
14874865.118417086 
14874865.118417086 
14874865.118417086 
14874865.118415643 
14874865.118379842 
14874865.117553134 
14874865.100914065 
14874864.812894206 
14874860.580794448 
14874808.625889353 
14874285.942344261 
14870078.227648105 
14843760.973123102 
14720390.512006534 
14303818.673358215 
13318834.54991746 
11642317.424415532 
9358846.700343933 
6544153.298514431 
2938916.7452776306 
872221.4777871077 
13001264.880666502 
13001264.880666502 
13001264.880666502 
13001264.880664699 
13001264.88061823 
13001264.879527804 
13001264.857180722 
13001264.462339835 
13001258.523070775 
13001183.620288216 
13000406.330932025 
12993922.100203034 
12951708.38245232 
12745288.904777762 
12023502.0770313 
10319476.190872766 
7692913.510754384 
4737535.049418568 
1825396.6424243546 
-24047.28341109911 
-442389.68023156095 
13170596.006027274 
13170596.006027274 
13170596.006027274 
13170596.006025115 
13170596.00596929 
13170596.004642393 
13170595.977108411 
13170595.483619975 
13170587.938417438 
13170490.986500403 
13169463.012213971 
13160672.999757389 
13101824.088857146 
12805246.728201669 
11739600.500371775 
9211566.016135894 
5633988.805993089 
2669687.497310972 
517174.2212911751 
79640.47269429546 
699927.2833043393 
13618818.311848875 
13618818.311848875 
13618818.311848875 
13618818.311846428 
13618818.311784055 
13618818.310292423 
13618818.279108662 
13618817.715466632 
13618809.014362773 
13618695.972131817 
13617482.126018858 
13606950.709716646 
13535265.40542467 
13167373.549166251 
11822153.413266774 
8609206.645536544 
4301794.075413553 
1890579.171862164 
1028069.745065724 
-41662.773160124896 
-526043.8270214573 
13177779.521694517 
13177779.521694517 
13177779.521694517 
13177779.521691918 
13177779.521627028 
13177779.520076178 
13177779.487574609 
13177778.898467992 
13177769.775328271 
13177650.818242572 
13176368.11592184 
13165185.649445273 
13088650.759162623 