<?xml version="1.0"?>
<VTKFile type="UnstructuredGrid" version="0.1" byte_order="LittleEndian" compressor="vtkZLibDataCompressor">
<UnstructuredGrid>
<Piece NumberOfPoints="441" NumberOfCells="400">
<PointData>
<DataArray type="Float64" Name="displacement" NumberOfComponents="3" format="ascii" >
0.0 4.949401782740115e-38  0.
7.661959021886401e-38 2.7107783076366393e-38  0.
1.1938977296027025e-37 1.5738696870250106e-38  0.
1.1466228477780885e-37 -2.0537364898415778e-38  0.
4.3544417163330215e-38 -5.050052044996051e-38  0.
-1.555302278929258e-37 -1.4850867200574043e-37  0.
-8.211773220223442e-37 -5.165534029913707e-37  0.
-4.0804656005442274e-36 -2.7399417673345445e-36  0.
-2.549327212028246e-35 -1.8665191459811192e-35  0.
-1.1523608290921312e-34 -7.103377434383595e-35  0.
-3.2485206296326774e-34 -1.3879270268851512e-34  0.
-7.352550832881183e-34 -2.708681115214159e-34  0.
-1.3131803821120696e-33 -3.0832540536952105e-34  0.
-2.0562057177218417e-33 -4.336151827438649e-34  0.
-2.8482111791267663e-33 -3.584010181972453e-34  0.
-3.63931816751849e-33 -4.338801774854643e-34  0.
-4.2601528221203505e-33 -1.8539981281307537e-34  0.
-4.442417023090449e-33 -1.2354313448504582e-36  0.
-3.936274541103192e-33 5.330055043517675e-34  0.
-2.4253669735189048e-33 7.884909899022015e-34  0.
-1.4274136309216976e-33 1.8042575239048976e-33  0.
0.0 7.178676883767688e-36  0.
2.144338519860209e-35 1.4303202828390897e-35  0.
3.4017333727576384e-35 -1.599362189639554e-36  0.
3.071563292609444e-35 -1.7903768361985302e-36  0.
1.7512789192488857e-35 -1.1434336568903264e-35  0.
-1.1849042560316729e-35 -1.8145577878888285e-35  0.
-8.866175050834763e-35 -5.932348350683397e-35  0.
-4.159779448735127e-34 -2.7128953597434732e-34  0.
-2.248562307392149e-33 -1.5823822916183022e-33  0.
-1.850904826317339e-32 -1.4764277680758463e-32  0.
-9.113693393356952e-32 -5.823336699723986e-32  0.
-2.335162687722414e-31 -8.367612106062819e-32  0.
-4.622532159600744e-31 -1.4765370276927931e-31  0.
-7.035371050711575e-31 -9.231905129627606e-32  0.
-9.2769507829472e-31 -1.328273854985115e-31  0.
-1.1100056345647887e-30 -5.179983642432865e-32  0.
-1.2814928446197063e-30 -1.1897544007474785e-31  0.
-1.3748744065106586e-30 2.3549126151591477e-32  0.
-1.2570366354570071e-30 1.0614025649088196e-31  0.
-7.995310399574371e-31 2.804400234196132e-31  0.
-4.496171570070886e-31 5.840956963259716e-31  0.
0.0 1.0291854818285506e-32  0.
1.8813789637973786e-32 8.256634444206453e-33  0.
2.5152671199004493e-32 -1.285065426578885e-33  0.
1.9850587055467635e-32 -4.44848490378641e-33  0.
9.668854942669552e-33 -5.610054306411934e-33  0.
-1.1462473860684772e-33 -5.289947772340239e-33  0.
-2.0081747670395491e-32 -1.3799629606359896e-32  0.
-8.213829551559871e-32 -4.8943833908753556e-32  0.
-4.099192065724541e-31 -2.8230075733755416e-31  0.
-2.1969130811240618e-30 -1.538189191498608e-30  0.
-2.0943138352071206e-29 -1.73809280028819e-29  0.
-1.0983563507150276e-28 -7.072598168680859e-29  0.
-2.5517345264195593e-28 -8.036973588719887e-29  0.
-4.425800730543042e-28 -9.985518255625267e-29  0.
-5.428510640705424e-28 -1.4588862448278742e-30  0.
-5.888864311722227e-28 -5.120330747641051e-29  0.
-6.612097279394043e-28 -1.8689302274396483e-29  0.
-7.666391614897178e-28 -8.605501496663675e-29  0.
-7.749713433167428e-28 8.892666657831627e-29  0.
-4.853260383751284e-28 1.3896777330170765e-28  0.
-3.090004463420895e-28 3.9946072723659285e-28  0.
0.0 1.558982390894712e-29  0.
4.022633778888157e-29 2.036464205794705e-29  0.
3.7413853200114936e-29 -1.64176635910505e-29  0.
1.3557270465198493e-29 -1.008241153177593e-29  0.
1.804547979612031e-30 -1.4893607322605958e-30  0.
-3.0741132315721477e-31 -6.504203996891584e-31  0.
-3.507294776285024e-30 -2.58804348688558e-30  0.
-2.1533772276155512e-29 -1.552268959503079e-29  0.
-7.804410625617676e-29 -4.144780240451481e-29  0.
-4.1974507593266595e-28 -3.04384211783301e-28  0.
-2.107562502240764e-27 -1.4469157912088373e-27  0.
-1.627460572523173e-26 -1.2744942972044645e-26  0.
-1.1211324550918685e-25 -8.908131514826316e-26  0.
-4.108345185477185e-25 -1.3401062348044743e-25  0.
-4.573661686363072e-25 8.63001965598394e-26  0.
-2.484067639032326e-25 4.843920667570066e-26  0.
-2.7431657059038757e-25 -7.239245509071539e-26  0.
-4.428845914817923e-25 -6.477617865019508e-26  0.
-5.206836384530977e-25 -6.825587460945307e-28  0.
-3.267020578708244e-25 1.0942094009839276e-25  0.
-2.0124857812470385e-25 2.626781391890963e-25  0.
0.0 1.9407789966467425e-21  0.
1.8312307105510845e-25 1.940461342125717e-21  0.
1.356999914501421e-26 1.9405446268664393e-21  0.
7.865603491793927e-28 1.9405572185655034e-21  0.
5.985982177457683e-29 1.9405578261348662e-21  0.
-3.4930635244239496e-29 1.9405578581916828e-21  0.
-3.6524109396589204e-28 1.9405575904907307e-21  0.
-2.8657811447347695e-27 1.940555665471316e-21  0.
-2.139881333238577e-26 1.940541064204078e-21  0.
-6.615806014326259e-26 1.9405280994761976e-21  0.
-4.36489258556639e-25 1.940207480137587e-21  0.
-2.6057590389234114e-24 1.939142993132041e-21  0.
-8.04238656692886e-24 1.9362536272807908e-21  0.
-1.3574026934996505e-22 1.8452034498894672e-21  0.
-1.4912241848411783e-22 1.2479314806174386e-21  0.
-5.469527589152914e-23 1.1534836280262596e-21  0.
-7.400034925188132e-23 1.1586234846110232e-21  0.
-1.849662868249094e-22 1.0822035788047646e-21  0.
-2.5584576796957256e-22 6.063538238221621e-22  0.
-2.0686362727779435e-22 1.661574873451831e-22  0.
-2.3226695073076293e-22 2.778820460487958e-22  0.
0.0 2.1500726140232638e-19  0.
8.966030094396026e-24 2.1549293924088475e-19  0.
1.9833497273368812e-25 2.1549874090246716e-19  0.
1.0433490318228287e-26 2.1549894180309655e-19  0.
-2.206137659980278e-28 2.1549895393433528e-19  0.
-1.312064847680634e-28 2.1549895372797605e-19  0.
-1.9851117332533233e-26 2.1549893379634256e-19  0.
-1.8798388719718032e-25 2.1549879540160973e-19  0.
-1.797611762014532e-24 2.154974149174117e-19  0.
-1.555387330776974e-23 2.1548851644835742e-19  0.
-4.091090368582147e-23 2.1548942367908557e-19  0.
-2.736904716186576e-22 2.1530977613493466e-19  0.
-7.388454942293414e-22 2.1343498161895135e-19  0.
-1.6858843634585204e-21 2.1222747072976293e-19  0.
-2.701284359652841e-21 2.078281294341692e-19  0.
-5.2753330148877555e-21 2.004344202731546e-19  0.
-7.64628139777175e-21 1.8550471024727607e-19  0.
-1.0602072360116002e-20 1.7037377332229697e-19  0.
-1.4293805396066466e-20 1.4382010581087218e-19  0.
-1.8221390908429277e-20 1.1701383901358845e-19  0.
-6.075428558617389e-20 1.1904716136847978e-19  0.
0.0 8.309093012072085e-18  0.
2.3089756446377142e-23 8.311274154096572e-18  0.
1.9609486029461682e-26 8.311312008043223e-18  0.
-2.4384394108281354e-26 8.311312416866788e-18  0.
-2.636145931140483e-27 8.311312425506922e-18  0.
-1.3262178149714757e-27 8.31131242100013e-18  0.
-5.432439750879635e-26 8.311312333175554e-18  0.
-5.9169726939766694e-24 8.311306132754356e-18  0.
-6.394868159364117e-23 8.311263803535474e-18  0.
-6.394691318846729e-22 8.310840802097626e-18  0.
-3.4392245997247034e-21 8.306306154515848e-18  0.
-6.899146824976826e-21 8.295771190292906e-18  0.
-2.0266448846655495e-20 8.272524490011814e-18  0.
-4.673737226711376e-20 8.20989041606214e-18  0.
-9.343175132914129e-20 8.075635395615334e-18  0.
-1.6947203407921203e-19 7.831477572960538e-18  0.
-2.759669216286126e-19 7.405456713855133e-18  0.
-4.12806676728303e-19 6.753987277315799e-18  0.
-5.685480982740677e-19 5.829811651340279e-18  0.
-7.634897545616574e-19 4.635495866618653e-18  0.
-2.47976217683487e-18 4.718670553206114e-18  0.
0.0 2.766938099183374e-16  0.
-3.1532380013666873e-22 2.766934546263079e-16  0.
7.710250331417286e-26 2.766932829111348e-16  0.
-2.274950206799469e-25 2.766932829196601e-16  0.
3.874913781141191e-27 2.766932826681394e-16  0.
-4.030619624154754e-27 2.7669328265874383e-16  0.
-1.19150015243239e-24 2.766932814163587e-16  0.
-2.806149202532427e-23 2.76693241877505e-16  0.
-1.4879019545540949e-21 2.766917934268192e-16  0.
-1.2921502857506063e-20 2.766786510270805e-16  0.
-5.990276344780878e-20 2.7661136854369253e-16  0.
-1.870397689342772e-19 2.763862665277641e-16  0.
-5.32155215995295e-19 2.7572134497443295e-16  0.
-1.286219174377318e-18 2.740335679582679e-16  0.
-2.7372139829354068e-18 2.7028510497558283e-16  0.
-5.1641394401162075e-18 2.628928112100478e-16  0.
-8.784940853500543e-18 2.498079617606136e-16  0.
-1.3566815785198084e-17 2.2879841386568407e-16  0.
-1.9145556396336347e-17 1.980701619733809e-16  0.
-2.6147861804832015e-17 1.5814102294138025e-16  0.
-8.498255687908277e-17 1.6153315968190427e-16  0.
0.0 7.915414779508579e-15  0.
-3.1072116949879535e-22 7.915408827014759e-15  0.
-1.3776184341430628e-23 7.915409226177378e-15  0.
4.860480978973656e-25 7.915409214087936e-15  0.
1.7042968508879008e-26 7.91540921401947e-15  0.
-1.494573955793109e-26 7.915409214009328e-15  0.
-2.0143031410872927e-24 7.915409209057372e-15  0.
-5.65806997734302e-22 7.915408239495472e-15  0.
-1.617170271408014e-20 7.915394675311896e-15  0.
-1.6681544019040778e-19 7.915238126577663e-15  0.
-8.847667983543662e-19 7.914320498779551e-15  0.
-3.558405637570904e-18 7.91035850766588e-15  0.
-1.1236477260358245e-17 7.896940143908293e-15  0.
-2.9883830972232996e-17 7.859317268808748e-15  0.
-6.779078493884421e-17 7.769425434993744e-15  0.
-1.3530821363619067e-16 7.58162016960891e-15  0.
-2.395596812169205e-16 7.233795527743027e-15  0.
-3.819315945709565e-16 6.65571152982492e-15  0.
-5.521368712551784e-16 5.787453818048247e-15  0.
-7.693924570754065e-16 4.640195476823697e-15  0.
-2.5060174435029535e-15 4.75768775856755e-15  0.
0.0 1.9215093616844468e-13  0.
-8.81320264972967e-22 1.9215094074551008e-13  0.
3.730328805410053e-23 1.9215093997976508e-13  0.
8.823902476156432e-25 1.9215093998818738e-13  0.
3.169448079163505e-26 1.9215093998941298e-13  0.
-1.2590492683753037e-25 1.921509399893075e-13  0.
-1.1812884170409833e-23 1.9215093997095992e-13  0.
-2.766701098348634e-21 1.9215093822871545e-13  0.
-8.707570231850961e-20 1.921508759048275e-13  0.
-1.1515568540320777e-18 1.9214997480773433e-13  0.
-1.0231834336635492e-17 1.9214055594855698e-13  0.
-5.033549899227989e-17 1.9208839900936264e-13  0.
-1.9044826271685888e-16 1.9187583182789388e-13  0.
-5.611221953162271e-16 1.9120299046109252e-13  0.
-1.3950068208173054e-15 1.8943443363153663e-13  0.
-2.955233802111013e-15 1.8547510609410042e-13  0.
-5.507444671906105e-15 1.7773517495846467e-13  0.
-9.089253247194935e-15 1.6433992157971946e-13  0.
-1.352100098712896e-14 1.435997789572384e-13  0.
-1.9264597112540882e-14 1.1568003482220483e-13  0.
-6.286878243344253e-14 1.191471271804829e-13  0.
0.0 3.899913188017429e-12  0.
4.689161949933739e-22 3.899913194537957e-12  0.
1.5723163637197603e-23 3.899913195397243e-12  0.
2.2626117328381944e-25 3.899913195464489e-12  0.
1.572945058354749e-26 3.8999131954666204e-12  0.
-4.0927064495884445e-25 3.899913195466057e-12  0.
-5.628922419904406e-23 3.8999131953763196e-12  0.
-1.2452350066022882e-20 3.899913187250391e-12  0.
-3.3621748610107947e-19 3.899912991052604e-12  0.
-5.504667694917521e-18 3.899909290371638e-12  0.
-6.647137254309597e-17 3.8998581340550586e-12  0.
-5.312441219281946e-16 3.8993731165800946e-12  0.
-2.4030468974280386e-15 3.896892184863288e-12  0.
-8.429179172594246e-15 3.887484388405914e-12  0.
-2.3028559987722994e-14 3.859751317143864e-12  0.
-5.318381917724131e-14 3.791848546669292e-12  0.
-1.045006507459111e-13 3.650368086142737e-12  0.
-1.8061563597912201e-13 3.3932931684458104e-12  0.
-2.76655095607885e-13 2.9810468283371478e-12  0.
-4.054497340581624e-13 2.4145690979723087e-12  0.
-1.3221556355035806e-12 2.5003344889371066e-12  0.
0.0 6.500615615275403e-11  0.
5.376506134843476e-22 6.500615614268352e-11  0.
-9.172428179268714e-23 6.500615614275702e-11  0.
-6.570756542928903e-25 6.500615614271825e-11  0.
2.302918002596025e-27 6.50061561427199e-11  0.
-2.126482052932968e-24 6.500615614271667e-11  0.
-4.560381911800299e-22 6.500615614205926e-11  0.
-4.017918670018355e-20 6.500615611897727e-11  0.
-1.0412922919729845e-18 6.50061555821099e-11  0.
-2.0121979058982086e-17 6.5006143964592e-11  0.
-2.988736739956583e-16 6.500594810931968e-11  0.
-3.2071464343952757e-15 6.500352482507073e-11  0.
-2.2727253987863943e-14 6.498300563330258e-11  0.
-9.384241555148211e-14 6.488667591555268e-11  0.
-3.026124861532069e-13 6.45494115244209e-11  0.
-7.606036339996531e-13 6.363031053999983e-11  0.
-1.6186983194416763e-12 6.155020538772891e-11  0.
-2.926769540250796e-12 5.754804855909626e-11  0.
-4.6686319407765456e-12 5.085739618855861e-11  0.
-7.041635194669213e-12 4.145289706954291e-11  0.
-2.2930708667700313e-11 4.3219071188400395e-11  0.
0.0 8.707041871714642e-10  0.
-4.907513849700929e-21 8.707041871646676e-10  0.
3.160799719073127e-23 8.707041871630282e-10  0.
-9.725421798364933e-26 8.707041871628916e-10  0.
-1.2058335910544378e-25 8.707041871628925e-10  0.
-5.6683314042060266e-24 8.707041871628797e-10  0.
-2.17389138142052e-21 8.70704187161388e-10  0.
-1.0247219112060428e-19 8.707041871178003e-10  0.
-2.746781482956112e-18 8.707041858884552e-10  0.
-5.955093474213437e-17 8.70704156371162e-10  0.
-1.0257662457421808e-15 8.707035858757016e-10  0.
-1.3450522860319141e-14 8.706950388471502e-10  0.
-1.2654656615486953e-13 8.706014947848233e-10  0.
-7.847606792721356e-13 8.699030824686136e-10  0.
-2.931226981381269e-12 8.669207920239384e-10  0.
-8.599366008761066e-12 8.573724545644784e-10  0.
-1.9694085822893673e-11 8.335388934367667e-10  0.
-3.8244009289832095e-11 7.841697464684504e-10  0.
-6.328510313258265e-11 6.975510273087792e-10  0.
-9.941110505787882e-11 5.728143063372482e-10  0.
-3.2079967643695367e-10 6.022321492830252e-10  0.
0.0 9.121110172461521e-09  0.
-4.539644062335302e-21 9.121110172461149e-09  0.
2.47202699716425e-23 9.121110172462037e-09  0.
-7.40344866707398e-24 9.121110172462118e-09  0.
-1.3935534238557503e-25 9.121110172462112e-09  0.
3.0962243298821454e-24 9.121110172462095e-09  0.
-5.4561766325497985e-21 9.1211101724603e-09  0.
-2.2174494067709335e-19 9.121110172381574e-09  0.
-6.249408737905201e-18 9.121110169988974e-09  0.
-1.4794624241669775e-16 9.121110107608806e-09  0.
-2.8449905527986564e-15 9.121108770425422e-09  0.
-4.3060138100789503e-14 9.121085887533801e-09  0.
-4.91501427977926e-13 9.12078485323769e-09  0.
-3.991640029834012e-12 9.117911298927882e-09  0.
-2.1316600441443e-11 9.099300457391939e-09  0.
-7.123006001184365e-11 9.02782919819865e-09  0.
-1.875528868414937e-10 8.821173314385664e-09  0.
-3.868125745430321e-10 8.354441775588461e-09  0.
-6.805184463164788e-10 7.484426495275041e-09  0.
-1.1087833171622976e-09 6.200790857363714e-09  0.
-3.5363789868848804e-09 6.594090593396698e-09  0.
0.0 7.221720543738945e-08  0.
4.969835492247798e-22 7.221720543739592e-08  0.
-7.441769148733707e-23 7.22172054373935e-08  0.
5.8491651384045944e-24 7.221720543739354e-08  0.
6.504137568072901e-25 7.221720543739353e-08  0.
1.34925133638234e-24 7.221720543739351e-08  0.
-9.833045848641416e-21 7.221720543739058e-08  0.
-4.1267774550320473e-19 7.221720543727628e-08  0.
-1.2468441119441094e-17 7.221720543326358e-08  0.
-3.158248590206413e-16 7.221720532150159e-08  0.
-6.60476998838781e-15 7.221720273027265e-08  0.
-1.1112948077189514e-13 7.221715377010603e-08  0.
-1.4565323365348705e-12 7.221642150369538e-08  0.
-1.4227191093294103e-11 7.220809228288875e-08  0.
-9.779875165051399e-11 7.213996806480154e-08  0.
-4.409542652573829e-10 7.176514211155043e-08  0.
-1.2997424519188601e-09 7.048970378639784e-08  0.
-3.0181516199000515e-09 6.721675199575474e-08  0.
-5.563979165295497e-09 6.068129366769216e-08  0.
-9.61336469891454e-09 5.0827819544094435e-08  0.
-2.965607456016544e-08 5.4851805616627056e-08  0.
0.0 4.1363741542182287e-07  0.
1.1964448014863351e-21 4.136374154218193e-07  0.
4.0749578450435855e-22 4.136374154218222e-07  0.
6.823794820750032e-24 4.1363741542182197e-07  0.
-1.1598303460781292e-23 4.1363741542182197e-07  0.
-1.522681140839176e-23 4.136374154218217e-07  0.
-1.5727822432867853e-20 4.1363741542181953e-07  0.
-7.000114525496477e-19 4.1363741542164377e-07  0.
-2.2038332879850794e-17 4.1363741541579247e-07  0.
-5.88777454551145e-16 4.1363741524477954e-07  0.
-1.3127741662366066e-14 4.13637411034275e-07  0.
-2.3916776774204933e-13 4.136373253206915e-07  0.
-3.4669666791190224e-12 4.13635917369974e-07  0.
-3.863766899049368e-11 4.1361780468408546e-07  0.
-3.1601859869461995e-10 4.1344311174291977e-07  0.
-1.7925360168917025e-09 4.122470034200569e-07  0.
-6.659346755857556e-09 4.068081933809994e-07  0.
-1.7012766751902038e-08 3.9076371990101185e-07  0.
-3.43892099902872e-08 3.555174059380584e-07  0.
-6.221871253183011e-08 3.019408741332699e-07  0.
-1.826670350494302e-07 3.3288754693870685e-07  0.
0.0 1.6218542647650107e-06  0.
-1.3037893961844956e-21 1.6218542647650107e-06  0.
2.768877241505016e-22 1.621854264765008e-06  0.
5.917556973418807e-22 1.6218542647650111e-06  0.
6.106661395042956e-23 1.6218542647650113e-06  0.
-1.4426525333820935e-22 1.6218542647650113e-06  0.
-2.529499337475374e-20 1.6218542647650046e-06  0.
-1.0699874095638944e-18 1.6218542647647968e-06  0.
-3.481037055939633e-17 1.6218542647574605e-06  0.
-9.68544712248687e-16 1.6218542645348376e-06  0.
-2.266843375764699e-14 1.621854258797572e-06  0.
-4.3819556976679557e-13 1.6218541353848611e-06  0.
-6.840522967084225e-12 1.6218519615328496e-06  0.
-8.377738991023613e-11 1.6218214414475278e-06  0.
-7.754467671017868e-10 1.6214904041633077e-06  0.
-5.161565868411916e-09 1.6188503623254498e-06  0.
-2.3360444239961213e-08 1.6041983976796809e-06  0.
-6.956049871680648e-08 1.5513140952015192e-06  0.
-1.528812328311376e-07 1.423169168200428e-06  0.
-2.9607642653286673e-07 1.2316952137269884e-06  0.
-7.828994436677921e-07 1.3961218377817532e-06  0.
0.0 4.116669272853939e-06  0.
-4.803176069122405e-21 4.1166692728539314e-06  0.
8.076521909244797e-22 4.1166692728539365e-06  0.
1.1675562104431148e-21 4.116669272853939e-06  0.
-4.6621156981637507e-23 4.116669272853938e-06  0.
1.501944040660229e-22 4.116669272853938e-06  0.
-3.7203558944762983e-20 4.116669272853931e-06  0.
-1.4779008004872985e-18 4.11666927285372e-06  0.
-4.935816996754186e-17 4.116669272846002e-06  0.
-1.4148384466916692e-15 4.116669272604863e-06  0.
-3.431001579886598e-14 4.116669266178975e-06  0.
-6.923718573481316e-13 4.116669122152757e-06  0.
-1.139727849530155e-11 4.116666456540726e-06  0.
-1.4925921779375984e-10 4.116626539094651e-06  0.
-1.5058197596493795e-09 4.1161574966546045e-06  0.
-1.1223415838662267e-08 4.11197518133293e-06  0.
-5.855063544853361e-08 4.0853125754457884e-06  0.
-2.0290982608525007e-07 3.9717111039521325e-06  0.
-4.820884563292509e-07 3.6778974987914617e-06  0.
-1.0037374225878233e-06 3.279623965347297e-06  0.
-2.217768354822423e-06 3.827337010890063e-06  0.
0.0 6.822801529241471e-06  0.
1.7912797295880878e-22 6.822801529241485e-06  0.
8.60279765258395e-22 6.822801529241483e-06  0.
2.0341345787971844e-21 6.822801529241484e-06  0.
-1.2572426759802254e-23 6.822801529241485e-06  0.
1.118191253876182e-22 6.822801529241485e-06  0.
-4.6988346914392104e-20 6.822801529241482e-06  0.
-1.8582954586944e-18 6.8228015292412994e-06  0.
-6.307046428622024e-17 6.822801529234796e-06  0.
-1.8455154240500483e-15 6.822801529027619e-06  0.
-4.5852171564330993e-14 6.822801523374593e-06  0.
-9.527104536464027e-13 6.822801393116218e-06  0.
-1.6254399826968533e-11 6.822798896291228e-06  0.
-2.2263451626648743e-10 6.822759905819545e-06  0.
-2.3791941821692807e-09 6.822274499751911e-06  0.
-1.9124302450192565e-08 6.817627106253951e-06  0.
-1.1025560844625948e-07 6.784730425462608e-06  0.
-4.3111435972676516e-07 6.6269657973124575e-06  0.
-1.117015631861062e-06 6.195339421067845e-06  0.
-2.288989946876769e-06 5.837414535237043e-06  0.
-4.050432841584465e-06 6.843353620350414e-06  0.
0.0 9.019461745616379e-06  0.
2.6679339223373002e-21 9.019461745616379e-06  0.
2.594734884469835e-22 9.019461745616377e-06  0.
1.3684455996003587e-21 9.019461745616372e-06  0.
5.349968833958354e-25 9.019461745616368e-06  0.
-4.654472885543802e-23 9.019461745616368e-06  0.
-5.1854449921626126e-20 9.019461745616363e-06  0.
-2.1310889005670983e-18 9.019461745616268e-06  0.
-7.297009405261294e-17 9.019461745612525e-06  0.
-2.1610184922157695e-15 9.019461745491656e-06  0.
-5.44577299281528e-14 9.019461742150725e-06  0.
-1.1509118153508592e-12 9.019461663900196e-06  0.
-2.00485693582767e-11 9.019460135400225e-06  0.
-2.8181551036979877e-10 9.019435640555347e-06  0.
-3.114042867773686e-09 9.019121313864852e-06  0.
-2.616580894387735e-08 9.015967011356302e-06  0.
-1.604131687844023e-07 8.992345138066406e-06  0.
-6.815519965942833e-07 8.869390999099086e-06  0.
-1.9052795741886595e-06 8.51611916180051e-06  0.
-3.5085982291961216e-06 8.4443106982341e-06  0.
-4.890895904031796e-06 9.34071968906371e-06  0.
0.0 1.145000000000002e-05  0.
-1.7138243018954755e-21 1.145000000000002e-05  0.
6.695103855067933e-22 1.145000000000002e-05  0.
-1.877074779457402e-22 1.145000000000002e-05  0.
2.720841292698842e-23 1.145000000000002e-05  0.
1.2962210203419196e-22 1.145000000000002e-05  0.
-5.425470746803422e-20 1.145000000000002e-05  0.
-2.226650393776778e-18 1.145000000000002e-05  0.
-7.659532443091209e-17 1.145000000000002e-05  0.
-2.277286347099323e-15 1.145000000000002e-05  0.
-5.765533577671157e-14 1.145000000000002e-05  0.
-1.2253255706706298e-12 1.145000000000002e-05  0.
-2.1490140545315234e-11 1.145000000000002e-05  0.
-3.04674954060865e-10 1.145000000000002e-05  0.
-3.403485787182989e-09 1.145000000000002e-05  0.
-2.9029776174241335e-08 1.145000000000002e-05  0.
-1.8171128883917734e-07 1.145000000000002e-05  0.
-7.961196839125643e-07 1.145000000000002e-05  0.
-2.2938149281303477e-06 1.145000000000002e-05  0.
-3.96349779776138e-06 1.145000000000002e-05  0.
-4.86595570384693e-06 1.145000000000002e-05  0.
</DataArray>
<DataArray type="Float64" Name="sigma_xx" NumberOfComponents="1" format="ascii" >
0.0 
0.0 
0.0 
0.0 
0.0 
0.0 
0.0 
0.0 
0.0 
0.0 
0.0 
0.0 
0.0 
0.0 
0.0 
0.0 
0.0 
0.0 
0.0 
0.0 
0.0 
0.0 
0.0 
0.0 
0.0 
0.0 
0.0 
0.0 
0.0 
0.0 
0.0 
0.0 
0.0 
0.0 
0.0 
0.0 
0.0 
0.0 
0.0 
0.0 
0.0 
0.0 
0.0 
0.0 
0.0 
0.0 
0.0 
0.0 
0.0 
0.0 
0.0 
0.0 
0.0 
0.0 
0.0 
0.0 
0.0 
0.0 
0.0 
0.0 
0.0 
0.0 
0.0 
0.0 
0.0 
0.0 
0.0 
0.0 
0.0 
0.0 
0.0 
0.0 
0.0 
0.0 
0.0 
0.0 
0.0 
0.0 
0.0 
0.0 
0.0 
0.0 
0.0 
0.0 
6.217248937900875e-07 
6.217248937900875e-07 
6.217248937900875e-07 
6.217248937900875e-07 
6.217248937900875e-07 
6.217248937900875e-07 
6.217248937900875e-07 
6.217248937900875e-07 
6.217248937900875e-07 
6.217248937900875e-07 
6.217248937900875e-07 
6.217248937900875e-07 
6.217248937900875e-07 
5.440092820663265e-07 
3.885780586188047e-07 
3.108624468950437e-07 
3.108624468950437e-07 
3.108624468950437e-07 
3.108624468950437e-07 
2.3869795029440855e-07 
1.6653345369377343e-07 
2.331468351712828e-05 
2.331468351712828e-05 
2.331468351712828e-05 
2.331468351712828e-05 
2.331468351712828e-05 
2.331468351712828e-05 
2.331468351712828e-05 
2.331468351712828e-05 
2.331468351712828e-05 
2.331468351712828e-05 
2.331468351712828e-05 
2.331468351712828e-05 
2.3164803408803884e-05 
2.277622535018508e-05 
2.2082335959794357e-05 
2.1238566461079238e-05 
2.0000667788622188e-05 
1.8213208718975686e-05 
1.557642903549094e-05 
1.123545700920658e-05 
8.593126210598708e-06 
0.000774358355215554 
0.000774358355215554 
0.000774358355215554 
0.000774358355215554 
0.000774358355215554 
0.000774358355215554 
0.000774358355215554 
0.000774358355215554 
0.0007742806396038302 
0.000774053043883782 
0.0007735256879470851 
0.0007723099937351206 
0.0007692679826476476 
0.0007622347197866473 
0.000748190398525139 
0.0007230938070534874 
0.0006816880393500922 
0.0006192379942149271 
0.0005305644812381158 
0.00038195557827691557 
0.00028509417049349384 
0.022140245192758805 
0.022140245192758805 
0.022140245192758805 
0.022140245192758805 
0.022140245192758805 
0.022140245192758805 
0.022140245192758805 
0.022140245192758805 
0.02213979555243383 
0.02213762506642069 
0.022129448273844325 
0.022103940899853562 
0.0220341467294105 
0.021867424537802542 
0.021516100012775034 
0.020855367433014742 
0.019730000966333698 
0.017980611444201593 
0.015456580459982654 
0.011150025347461675 
0.008318090660708318 
0.5372481792775827 
0.5372481792775827 
0.5372481792775827 
0.5372481792775827 
0.5372481792775827 
0.5372481792775827 
0.5372481792775827 
0.5372480293974744 
0.5372455258445539 
0.5372238154333073 
0.5371157241196298 
0.5366993183208988 
0.5354247822886291 
0.5321196816510108 
0.5247373591199531 
0.5101514155558815 
0.48437959754288307 
0.4431327971232689 
0.3822538285902509 
0.27608400565704005 
0.20575631198838085 
10.89759378292143 
10.89759378292143 
10.89759378292143 
10.89759378292143 
10.89759378292143 
10.89759378292143 
10.89759378292143 
10.897593050174233 
10.897580887680999 
10.897437446866217 
10.89632513107119 
10.89118564778779 
10.872725481059216 
10.82014042252943 
10.692956270430539 
10.427725966044573 
9.938090889116676 
9.129125566609272 
7.9037156597294675 
5.713490847103484 
4.2530154731323915 
181.47922486999585 
181.47922479228023 
181.47922471456462 
181.47922471456462 
181.47922471456462 
181.47922471456462 
181.47922464240014 
181.47922209443828 
181.47917461575065 
181.47849849547976 
181.47156826686654 
181.42401138621085 
181.22340447179747 
180.56040431702053 
178.8159299964675 
174.90740731873615 
167.34613582092265 
154.37465392953425 
134.15684738948823 
97.01856042154672 
72.02017023311132 
2427.0537951398546 
2427.0537951398546 
2427.053795139854 
2427.053795139854 
2427.053795139854 
2427.053795139854 
2427.0537949233603 
2427.053787579235 
2427.0536378823144 
2427.051183906403 
2427.020607775886 
2426.747062889144 
2425.1075331827014 
2418.8590108387134 
2400.0538590890346 
2354.7598517276165 
2261.5598059189106 
2095.387507583534 
1827.7143356171248 
1320.9624310173135 
977.5683174451094 
25357.28365722355 
25357.28365730127 
25357.283657378983 
25357.283657378983 
25357.283657378983 
25357.283657378983 
25357.283656873835 
25357.28363930455 
25357.283244714636 
25357.27600856407 
25357.172045281644 
25356.050220792786 
25347.433467820527 
25303.084989672367 
25152.304249398396 
24744.726222009063 
23856.266015767615 
22192.88888292425 
19423.544522759177 
14006.40196637381 
10290.133111429119 
199781.5412226655 
199781.5412226655 
199781.5412226655 
199781.5412226655 
199781.5412226655 
199781.5412226655 
199781.5412214387 
199781.54118470696 
199781.54028777996 
199781.52234670913 
199781.23541106723 
199777.6847149912 
199745.11875704976 
199534.96724397494 
198626.00810500723 
195915.93645943978 
189458.16932388052 
176881.39491427716 
155136.26559343067 
111248.13741057721 
81004.15237271006 
1132983.1915539042 
1132983.1915539042 
1132983.1915539042 
1132983.1915539042 
1132983.1915539042 
1132983.1915539042 
1132983.1915513673 
1132983.1914819728 
1132983.1896937976 
1132983.1514359342 
1132982.4871476043 
1132973.3809283366 
1132878.2560643372 
1132154.6966072873 
1128344.650595536 
1114884.9902254117 
1080548.3426388036 
1010109.0358516136 
885351.8465594843 
627199.571602846 
447415.29931884835 
4343397.562118988 
4343397.562118988 
4343397.562118988 
4343397.562118988 
4343397.562118988 
4343397.562118988 
4343397.562115008 
4343397.561997257 
4343397.558837162 
4343397.487602467 
4343396.170225438 
4343376.657555236 
4343152.224807219 
4341225.202798001 
4329473.556981024 
4281032.39691578 
4146668.977247984 
3863074.7726681083 
3355910.225330779 
2313677.4509369647 
1590968.071977388 
10390004.092472723 
10390004.092472723 
10390004.092472723 
10390004.092472723 
10390004.092472723 
10390004.09247265 
10390004.092467094 
10390004.092287876 
10390004.087302003 
10390003.97034053 
10390001.701461732 
10389966.091536501 
10389526.2181503 
10385400.208112406 
10357342.084488291 
10226783.691232959 
9831069.988717973 
9010685.866811939 
7572252.317188136 
4875297.218879915 
3085885.391325758 
14600584.650932163 
14600584.650932165 
14600584.650932165 
14600584.650932165 
14600584.650932165 
14600584.650931947 
14600584.650924442 
14600584.650677323 
14600584.643615706 
14600584.472999718 
14600581.04533708 
14600524.931581307 
14599795.190932551 
14592500.749933887 
14538856.436301753 
14265157.69717028 
13364788.196421247 
11531750.067704752 
8704834.345489904 
4509302.82714628 
1981346.4273134603 
13761834.633841392 
13761834.633841315 
13761834.633841237 
13761834.633841237 
13761834.633841237 
13761834.633840948 
13761834.633831715 
13761834.63352152 
13761834.62449739 
13761834.401985865 
13761829.823086113 
13761752.674803637 
13760713.697249552 
13749870.764278349 
13665741.885367982 
13207546.673551474 
11593471.170631861 
8280848.507872647 
4319432.8545449525 
781125.5765615401 
-878256.2794284145 
12986207.648598164 
12986207.648598088 
12986207.64859801 
12986207.64859801 
12986207.64859801 
12986207.648597721 
12986207.648587344 
12986207.648232033 
12986207.637790589 
12986207.377251 
12986201.939894367 
12986108.77784896 
12984828.322181787 
12971125.938246574 
12861406.904211504 
12239709.447371889 
9945850.22323008 
5148487.378933927 
839228.7945774549 
-91687.60511809192 
258662.63318376895 
13644096.315302385 
13644096.315302385 
13644096.315302385 
13644096.315302385 
13644096.315302385 
13644096.315302096 
13644096.315291293 
13644096.314919468 
13644096.303960335 
13644096.029428616 
13644090.273509497 
13643991.106206767 
13642618.988926854 
13627813.423978819 
13508026.815671377 
12820090.373715393 
10239846.969336353 
4796614.062055285 
520700.3241351573 
1092282.8668431174 
2495112.687935006 
</DataArray>
<DataArray type="Float64" Name="sigma_yy" NumberOfComponents="1" format="ascii" >
0.0 
0.0 
0.0 
0.0 
0.0 
0.0 
0.0 
0.0 
0.0 
0.0 
0.0 
0.0 
0.0 
0.0 
0.0 
0.0 
0.0 
0.0 
0.0 
0.0 
0.0 
0.0 
0.0 
0.0 
0.0 
0.0 
0.0 
0.0 
0.0 
0.0 
0.0 
0.0 
0.0 
0.0 
0.0 
0.0 
0.0 
0.0 
0.0 
0.0 
0.0 
0.0 
0.0 
0.0 
0.0 
0.0 
0.0 
0.0 
0.0 
0.0 
0.0 
0.0 
0.0 
0.0 
0.0 
0.0 
0.0 
0.0 
0.0 
0.0 
0.0 
0.0 
0.0 
0.0 
0.0 
0.0 
0.0 
0.0 
0.0 
0.0 
0.0 
0.0 