<?xml version="1.0"?>
<VTKFile type="UnstructuredGrid" version="0.1" byte_order="LittleEndian" compressor="vtkZLibDataCompressor">
<UnstructuredGrid>
<Piece NumberOfPoints="441" NumberOfCells="400">
<PointData>
<DataArray type="Float64" Name="displacement" NumberOfComponents="3" format="ascii" >
0.0 1.5582787664936145e-16  0.
1.7005466583641687e-21 1.5583271668397675e-16  0.
-3.915943228335707e-23 1.558343860049774e-16  0.
-8.097465318105215e-22 1.5583372765665676e-16  0.
-1.4147349604660099e-21 1.558286380827231e-16  0.
-1.1043890504068407e-21 1.558264837274528e-16  0.
-9.039966596487113e-21 1.558195109695554e-16  0.
-2.5899751607044624e-20 1.5578095608848747e-16  0.
-6.521012358784937e-20 1.5569739493584223e-16  0.
-1.483424483614983e-19 1.55512064455122e-16  0.
-3.167043991753681e-19 1.5508363311039686e-16  0.
-6.050895513990356e-19 1.5422769954213772e-16  0.
-1.1198075637969128e-18 1.5264346069403575e-16  0.
-1.903492848127294e-18 1.498637419882911e-16  0.
-3.032424351787223e-18 1.453103015272126e-16  0.
-4.560161222533937e-18 1.3830163982902367e-16  0.
-6.4223888636210216e-18 1.2815338374602999e-16  0.
-8.554351567976124e-18 1.142919772705872e-16  0.
-1.0794435471519994e-17 9.643124990039913e-17  0.
-1.37283240485289e-17 7.529493627137508e-17  0.
-3.7231985448900457e-17 7.561661444825587e-17  0.
0.0 1.3160035829101172e-15  0.
-1.3790315288731695e-21 1.3160071439048824e-15  0.
-3.5462526624799326e-22 1.3160067820369286e-15  0.
-1.0874554690252743e-21 1.3160060042453202e-15  0.
-4.88190887899385e-21 1.316001349696412e-15  0.
-1.5402269504650653e-20 1.3159841263197004e-15  0.
-5.3821785751187585e-20 1.3159247337621666e-15  0.
-1.6560147938963764e-19 1.3157333342523513e-15  0.
-4.342153512531769e-19 1.315225001611193e-15  0.
-1.0525138814755538e-18 1.3139255906898968e-15  0.
-2.3260086442232256e-18 1.3109810592815481e-15  0.
-4.7278264360574516e-18 1.3048042579585063e-15  0.
-8.869478576870854e-18 1.292823418303182e-15  0.
-1.5515194878558333e-17 1.2712699567814269e-15  0.
-2.5307355279283326e-17 1.23506858576777e-15  0.
-3.865195335205716e-17 1.178230259599627e-15  0.
-5.5397886303004436e-17 1.0944821485063396e-15  0.
-7.468804929147615e-17 9.784838546164239e-16  0.
-9.516677084305892e-17 8.273311455529919e-16  0.
-1.2188239401293179e-16 6.49066480130658e-16  0.
-3.558527867533165e-16 6.630768109967728e-16  0.
0.0 1.9765962670058638e-14  0.
-2.8556251671499546e-21 1.9765957575153386e-14  0.
-2.4274253003327848e-21 1.976594704925117e-14  0.
-4.357754737622723e-21 1.9765941154501872e-14  0.
-3.699224229416154e-20 1.976591358296287e-14  0.
-1.5027966487033072e-19 1.9765765962154697e-14  0.
-5.51638697606143e-19 1.9765189843302575e-14  0.
-1.778412766527481e-18 1.976327322646514e-14  0.
-5.041654566860636e-18 1.9757568470086686e-14  0.
-1.28665855315314e-17 1.9742441016273284e-14  0.
-2.9733365822313966e-17 1.9706156242776913e-14  0.
-6.282779037807677e-17 1.9626810390366848e-14  0.
-1.2210320705290851e-16 1.9467441638795442e-14  0.
-2.1953733124906927e-16 1.917169399707976e-14  0.
-3.6674008643945363e-16 1.8662377553638835e-14  0.
-5.713091830618711e-16 1.7845012736045563e-14  0.
-8.324652032005828e-16 1.6618905143912344e-14  0.
-1.1375717785070968e-15 1.489510208179576e-14  0.
-1.4648251697185138e-15 1.2622959892716606e-14  0.
-1.8942173340439613e-15 9.925302215279395e-15  0.
-5.513787146703312e-15 1.0180980444767453e-14  0.
0.0 2.6465344538380036e-13  0.
-5.4784033075325654e-21 2.6465343672042756e-13  0.
-3.907108658602362e-21 2.6465343788368963e-13  0.
-3.9099982799896304e-20 2.646534016773443e-13  0.
-2.4001768295819796e-19 2.6465319562867016e-13  0.
-1.151130070899169e-18 2.6465213237657285e-13  0.
-4.7259777547351436e-18 2.6464752651918724e-13  0.
-1.651277829716381e-17 2.646305483960201e-13  0.
-5.044258925591218e-17 2.6457612568442295e-13  0.
-1.3664498011273363e-16 2.644220974806509e-13  0.
-3.325211105508677e-16 2.6403180903093873e-13  0.
-7.335615656077028e-16 2.6313761549999214e-13  0.
-1.4791125557794599e-15 2.612692414965975e-13  0.
-2.7426917624319683e-15 2.5768481181799157e-13  0.
-4.702242461316208e-15 2.513354783455242e-13  0.
-7.485051710984334e-15 2.4090361185698267e-13  0.
-1.1102465134503665e-14 2.249461754906118e-13  0.
-1.539109324590506e-14 2.021519480455927e-13  0.
-2.0051537121728544e-14 1.7173391545657914e-13  0.
-2.6254243373096497e-14 1.3542508620348979e-13  0.
-7.582053772815091e-14 1.3950339479011116e-13  0.
0.0 3.1243789002523303e-12  0.
-8.834125125975735e-21 3.124378902865858e-12  0.
-1.8701445151136293e-20 3.124378890558984e-12  0.
-1.9537786123227693e-19 3.1243787530003656e-12  0.
-1.3206256994410447e-18 3.1243777273698284e-12  0.
-7.378445986653654e-18 3.1243714913159045e-12  0.
-3.3751956493698176e-17 3.1243408558178954e-12  0.
-1.3020271171913366e-16 3.124215126829338e-12  0.
-4.314024422693761e-16 3.123774887652228e-12  0.
-1.2519810488592956e-15 3.122432632687289e-12  0.
-3.2252615964848062e-15 3.118814837632026e-12  0.
-7.466980571010193e-15 3.11008287274801e-12  0.
-1.5674036199096158e-14 3.0910228925838835e-12  0.
-3.0067699217527835e-14 3.053087403954965e-12  0.
-5.3024196072012385e-14 2.9837897828198e-12  0.
-8.640996910136872e-14 2.866974893487766e-12  0.
-1.30650068441775e-13 2.6844629375658155e-12  0.
-1.8394569041216475e-13 2.4192384569507934e-12  0.
-2.426782339715554e-13 2.060606662657229e-12  0.
-3.2217058270072663e-13 1.6303736798470895e-12  0.
-9.21171159523183e-13 1.687892395623621e-12  0.
0.0 3.22297636324562e-11  0.
-1.2335986212518445e-20 3.2229763625252345e-11  0.
-8.391416230729574e-20 3.222976357187626e-11  0.
-7.946365610443299e-19 3.222976305351583e-11  0.
-6.079425153534377e-18 3.222975872583366e-11  0.
-3.856689787574559e-17 3.2229729013670265e-11  0.
-2.0048970662768948e-16 3.2229561738197744e-11  0.
-8.606244105703348e-16 3.2228790298473766e-11  0.
-3.1278872187636658e-15 3.222580362897218e-11  0.
-9.791280647475412e-15 3.221591008073229e-11  0.
-2.6895340604220908e-14 3.218731850965111e-11  0.
-6.56495729297263e-14 3.211419779479846e-11  0.
-1.4409167174996603e-13 3.194665751045957e-11  0.
-2.867904693873755e-13 3.159945247948025e-11  0.
-5.215790251224394e-13 3.0943472383555656e-11  0.
-8.717050136650362e-13 2.980643878995626e-11  0.
-1.3455403304352959e-12 2.7988810888191428e-11  0.
-1.9259869588084087e-12 2.52982450811562e-11  0.
-2.575760483146191e-12 2.16088302317331e-11  0.
-3.4722987795068626e-12 1.716402938727012e-11  0.
-9.803501326335952e-12 1.787637116542093e-11  0.
0.0 2.87492709687816e-10  0.
-2.916363770794076e-20 2.8749270968591537e-10  0.
-2.761067082869892e-19 2.8749270953981485e-10  0.
-2.785299036518811e-18 2.874927078715168e-10  0.
-2.368157015136549e-17 2.874926926069597e-10  0.
-1.6796900123120386e-16 2.874925753002843e-10  0.
-9.83932226599956e-16 2.8749182974238834e-10  0.
-4.7463786292268326e-15 2.8748793199165615e-10  0.
-1.9025364160891782e-14 2.874711354003966e-10  0.
-6.483730343568097e-14 2.87410085328257e-10  0.
-1.9092618656168511e-13 2.872195997221187e-10  0.
-4.942801750831982e-13 2.867000580745146e-10  0.
-1.1384707006229556e-12 2.8544458639349757e-10  0.
-2.359306584576974e-12 2.827248910320836e-10  0.
-4.434688033921223e-12 2.773952362975719e-10  0.
-7.616148859023264e-12 2.678747228628436e-10  0.
-1.2016238417840921e-11 2.522777850231035e-10  0.
-1.750573659703099e-11 2.287318654667274e-10  0.
-2.3754043269791716e-11 1.9596901918872741e-10  0.
-3.257432102545169e-11 1.563890973555847e-10  0.
-9.049142399108726e-11 1.6407058215148497e-10  0.
0.0 2.1906882178158055e-09  0.
-6.917364167954523e-20 2.1906882177963168e-09  0.
-7.8914466501002e-19 2.1906882173890494e-09  0.
-8.594335770201516e-18 2.1906882127303413e-09  0.
-7.95392458633606e-17 2.190688166331584e-09  0.
-6.211239424940116e-16 2.190687774619148e-09  0.
-4.042705504305545e-15 2.1906850082462616e-09  0.
-2.175455391849006e-14 2.1906688389097743e-09  0.
-9.682331035269889e-14 2.1905908286445328e-09  0.
-3.604634250549845e-13 2.1902784517412106e-09  0.
-1.1457517132513007e-12 2.189218475393472e-09  0.
-3.1576462606733455e-12 2.186119794056854e-09  0.
-7.665986865329157e-12 2.178184299882936e-09  0.
-1.658113346067668e-11 2.1601544560304143e-09  0.
-3.229101941933087e-11 2.12340555505261e-09  0.
-5.7059559021463184e-11 2.0556258831055108e-09  0.
-9.212889236226778e-11 1.9416727041813827e-09  0.
-1.3668851339214762e-10 1.7660746097035874e-09  0.
-1.8836929907662847e-10 1.5180876537263398e-09  0.
-2.632526178448669e-10 1.2184788001117611e-09  0.
-7.162192595037385e-10 1.289908190161221e-09  0.
0.0 1.4056476085497214e-08  0.
-1.5422629299629097e-19 1.4056476085422927e-08  0.
-2.0449201275251906e-18 1.4056476084488497e-08  0.
-2.3552952196270026e-17 1.4056476072946983e-08  0.
-2.343514863324112e-16 1.4056475949559765e-08  0.
-1.9854100239632988e-15 1.4056474822135131e-08  0.
-1.4145681539992015e-14 1.405646612082138e-08  0.
-8.390500480932286e-14 1.4056410034092049e-08  0.
-4.1203829832174147e-13 1.4056110665084623e-08  0.
-1.6811521773868444e-12 1.405478707666723e-08  0.
-5.77581642143136e-12 1.4049896067696068e-08  0.
-1.7014893751937235e-11 1.4034506688638717e-08  0.
-4.36204166837364e-11 1.3992628411490343e-08  0.
-9.872077046945102e-11 1.3892559060039197e-08  0.
-1.993793816495865e-10 1.3680069019170483e-08  0.
-3.628845692406544e-10 1.327491774102574e-08  0.
-5.997152133963534e-10 1.2575500259503733e-08  0.
-9.064569065919124e-10 1.1475177837418758e-08  0.
-1.2692482179782108e-09 9.89912867645607e-09  0.
-1.811458133070892e-09 8.004172715963528e-09  0.
-4.7959404303625565e-09 8.570263172493983e-09  0.
0.0 7.465685904089328e-08  0.
-3.442106374053162e-19 7.465685904077067e-08  0.
-4.75745993107296e-18 7.465685903880788e-08  0.
-5.799389667512653e-17 7.46568590131814e-08  0.
-6.137770487781943e-16 7.465685872262487e-08  0.
-5.5712226226893524e-15 7.465685588419152e-08  0.
-4.2869835375707984e-14 7.46568322704548e-08  0.
-2.765748246294028e-13 7.46566669290287e-08  0.
-1.4833115650981434e-12 7.465570216106238e-08  0.
-6.595718407164093e-12 7.465103899138558e-08  0.
-2.4483976355032423e-11 7.463230361709532e-08  0.
-7.703170279056645e-11 7.456895563429739e-08  0.
-2.0871909852717804e-10 7.43856822563898e-08  0.
-4.940899284996104e-10 7.392519196950631e-08  0.
-1.0349693114276044e-09 7.290652010416444e-08  0.
-1.9385850697033906e-09 7.090001781039229e-08  0.
-3.2768699713694903e-09 6.734661470489526e-08  0.
-5.040412498824461e-09 6.164752346217146e-08  0.
-7.171278854981527e-09 5.338924945121913e-08  0.
-1.0470999096146661e-08 4.359701405221355e-08  0.
-2.6745939591024254e-08 4.7368689544938186e-08  0.
0.0 3.2148363781234404e-07  0.
-7.005310369556685e-19 3.21483637812125e-07  0.
-1.0132213560600701e-17 3.2148363780835277e-07  0.
-1.294818972266322e-16 3.2148363775704936e-07  0.
-1.4439529308897341e-15 3.214836371453991e-07  0.
-1.3896079443173021e-14 3.214836308235066e-07  0.
-1.141345694003375e-13 3.214835748027851e-07  0.
-7.910802777269182e-13 3.2148315405166774e-07  0.
-4.58003327569242e-12 3.214805056527015e-07  0.
-2.200396072923946e-11 3.2146665413971604e-07  0.
-8.778001190647034e-11 3.214066446483102e-07  0.
-2.937846074621134e-10 3.211898010298229e-07  0.
-8.385109950062087e-10 3.205261012081191e-07  0.
-2.0702816336240396e-09 3.1877949677491066e-07  0.
-4.484373236217629e-09 3.1477007412074535e-07  0.
-8.618628847942718e-09 3.0664249070462435e-07  0.
-1.4853637257398123e-08 2.919365369704879e-07  0.
-2.3185338497923627e-08 2.6799656769388617e-07  0.
-3.3474332160998476e-08 2.3312305238018112e-07  0.
-5.0072841782288535e-08 1.9305379418007867e-07  0.
-1.2192376924741852e-07 2.1382756560263293e-07  0.
0.0 1.0944587756298462e-06  0.
-1.3244987835988813e-18 1.0944587756294625e-06  0.
-1.9839904401083453e-17 1.0944587756228847e-06  0.
-2.63820718742926e-16 1.0944587755298906e-06  0.
-3.0753480689488232e-15 1.0944587743727271e-06  0.
-3.109788131734154e-14 1.0944587618293116e-06  0.
-2.698937569656927e-13 1.0944586446024371e-06  0.
-1.9878349890696787e-12 1.0944577106686084e-06  0.
-1.2287231719314049e-11 1.0944514413185318e-06  0.
-6.315504434410844e-11 1.0944163616979257e-06  0.
-2.687780043821952e-10 1.094253903835583e-06  0.
-9.513100142803598e-10 1.0936310687735256e-06  0.
-2.8389951561556915e-09 1.091633230337582e-06  0.
-7.265199400499145e-09 1.086175229310215e-06  0.
-1.6157380033692128e-08 1.0732961144290515e-06  0.
-3.1661754984662557e-08 1.0466697086850575e-06  0.
-5.5257400084986195e-08 9.979046914181598e-07  0.
-8.702460873112232e-08 9.181257277315084e-07  0.
-1.2706730953310508e-07 8.029225498042719e-07  0.
-1.9471907658695195e-07 6.792851947139222e-07  0.
-4.4442321676306464e-07 7.718991838496198e-07  0.
0.0 2.8619417396989567e-06  0.
-2.314483740704499e-18 2.861941739698342e-06  0.
-3.5788290404070356e-17 2.8619417396879097e-06  0.
-4.924712790229989e-16 2.8619417395352947e-06  0.
-5.9599538812444465e-15 2.861941737566589e-06  0.
-6.283489475567199e-14 2.8619417153512916e-06  0.
-5.712187312547024e-13 2.8619414982330146e-06  0.
-4.427859081472671e-12 2.861939680587881e-06  0.
-2.8927728149214637e-11 2.861926800799025e-06  0.
-1.5753745291926027e-10 2.8618504748881558e-06  0.
-7.094455545034265e-10 2.8614761254700505e-06  0.
-2.6383163026525946e-09 2.8599646573160976e-06  0.
-8.173312004402075e-09 2.854920482443326e-06  0.
-2.145366530858529e-08 2.8408015404177563e-06  0.
-4.8508755253832665e-08 2.8070213562401588e-06  0.
-9.579560210563151e-08 2.7369531311032035e-06  0.
-1.6754405090199568e-07 2.6092155985805187e-06  0.
-2.6343892990953875e-07 2.4033036419589433e-06  0.
-3.867817366534677e-07 2.1172456325150276e-06  0.
-6.048181935672432e-07 1.8547148229905785e-06  0.
-1.2640003878629253e-06 2.179764266131036e-06  0.
0.0 5.6158033824303786e-06  0.
-3.745941668242499e-18 5.615803382429535e-06  0.
-5.963940554187279e-17 5.615803382414507e-06  0.
-8.445525855181812e-16 5.6158033821884795e-06  0.
-1.054751344350528e-14 5.615803379182679e-06  0.
-1.1515241995275e-13 5.615803344097877e-06  0.
-1.0881473743332204e-12 5.6158029880964905e-06  0.
-8.80249388201302e-12 5.615799881669079e-06  0.
-6.023349049730829e-11 5.615776850473683e-06  0.
-3.444180455507689e-10 5.615633625944852e-06  0.
-1.6278812350497055e-09 5.614896011628967e-06  0.
-6.318967337667432e-09 5.611781933811477e-06  0.
-2.0192809852800262e-08 5.6010399791081785e-06  0.
-5.385893028800678e-08 5.570504053188794e-06  0.
-1.2227131427749993e-07 5.497608185292181e-06  0.
-2.400062969589681e-07 5.3488605012919065e-06  0.
-4.14317116695172e-07 5.085708877543332e-06  0.
-6.416631258352827e-07 4.68146513741689e-06  0.
-9.385486676100972e-07 4.175007758808673e-06  0.
-1.4806599525907327e-06 3.877824420056609e-06  0.
-2.7466438737921748e-06 4.742123685702706e-06  0.
0.0 8.377918606832758e-06  0.
-5.651220528332373e-18 8.377918606831677e-06  0.
-9.213135271769866e-17 8.377918606812004e-06  0.
-1.3358640789918658e-15 8.377918606509628e-06  0.
-1.7124824188278842e-14 8.377918602384913e-06  0.
-1.924452247018941e-13 8.377918552869527e-06  0.
-1.8776459565063614e-12 8.377918034589401e-06  0.
-1.5733327005944826e-11 8.377913354579471e-06  0.
-1.1185917027446706e-10 8.37787733353853e-06  0.
-6.66048944638476e-10 8.377644185390863e-06  0.
-3.2785385097070986e-09 8.37639331885021e-06  0.
-1.3199097929679916e-08 8.370907900175676e-06  0.
-4.3280441034502106e-08 8.351445808631415e-06  0.
-1.1648277283282591e-07 8.295611946009297e-06  0.
-2.6245920562042856e-07 8.164224930662155e-06  0.
-5.056760578417342e-07 7.904901441368312e-06  0.
-8.478479787355555e-07 7.471886492608047e-06  0.
-1.2774982163393292e-06 6.867658478134013e-06  0.
-1.8429663091724924e-06 6.275892413902073e-06  0.
-2.8642289977188634e-06 6.382065661237186e-06  0.
-4.569414274899274e-06 8.034700482804522e-06  0.
0.0 1.0510863662182206e-05  0.
-7.980995511714479e-18 1.0510863662180963e-05  0.
-1.325331197894585e-16 1.051086366215756e-05  0.
-1.9591678328454712e-15 1.051086366179101e-05  0.
-2.5657580695969856e-14 1.0510863656687271e-05  0.
-2.9522238490791085e-13 1.0510863594010293e-05  0.
-2.9564830224448472e-12 1.0510862921281954e-05  0.
-2.549340668236087e-11 1.0510856675973081e-05  0.
-1.8698831169858053e-10 1.0510807129484341e-05  0.
-1.1508837868154456e-09 1.05104758296342e-05  0.
-5.8581163604737155e-09 1.0508637689499428e-05  0.
-2.4315650202336277e-08 1.0500316734515571e-05  0.
-8.147014061631382e-08 1.0470074447968411e-05  0.
-2.2031162880763622e-07 1.0382749362946125e-05  0.
-4.886464211843299e-07 1.0181669004735144e-05  0.
-9.140258945129324e-07 9.804347957270891e-06  0.
-1.4778994700306292e-06 9.220154190864095e-06  0.
-2.152026076852166e-06 8.525151369503402e-06  0.
-3.0615228391651128e-06 8.163366652824246e-06  0.
-4.523620607532311e-06 9.115734004198727e-06  0.
-6.191855893788015e-06 1.1217029445058492e-05  0.
0.0 1.2835627085139857e-05  0.
-1.0568043618577056e-17 1.2835627085138504e-05  0.
-1.7802972089241648e-16 1.2835627085113469e-05  0.
-2.6726197960333613e-15 1.283562708471557e-05  0.
-3.56026212462815e-14 1.2835627079083514e-05  0.
-4.174240548525423e-13 1.2835627008656155e-05  0.
-4.267791363052383e-12 1.2835626237496535e-05  0.
-3.764814641590495e-11 1.2835618919398544e-05  0.
-2.8306961388869053e-10 1.2835559448709579e-05  0.
-1.7888964510020786e-09 1.2835151368877798e-05  0.
-9.35453087169402e-09 1.283282539175412e-05  0.
-3.981034587846467e-08 1.2822019310171426e-05  0.
-1.3580671818795812e-07 1.2781935301645313e-05  0.
-3.683742833436994e-07 1.2665497082129525e-05  0.
-8.014807413612832e-07 1.2403458636190628e-05  0.
-1.4449244282899297e-06 1.194206038332541e-05  0.
-2.255222366941346e-06 1.1298894350886137e-05  0.
-3.2025297586120236e-06 1.0703287068088975e-05  0.
-4.511467619131804e-06 1.0833337255902712e-05  0.
-6.19295307254872e-06 1.2332936260238493e-05  0.
-7.652596916243241e-06 1.3852341294383023e-05  0.
0.0 1.5375598293580956e-05  0.
-1.3142004086206328e-17 1.537559829357971e-05  0.
-2.235121704059973e-16 1.5375598293556314e-05  0.
-3.395409344681594e-15 1.5375598293179652e-05  0.
-4.582163460617569e-14 1.537559828778057e-05  0.
-5.449693788756103e-13 1.537559821931895e-05  0.
-5.66021903171384e-12 1.5375597458102978e-05  0.
-5.0801866046118576e-11 1.537559011144327e-05  0.
-3.8922741633570186e-10 1.537552929867974e-05  0.
-2.509766990522474e-09 1.5375103620652245e-05  0.
-1.339820553102745e-08 1.5372626319751147e-05  0.
-5.813768868325964e-08 1.5360879844647594e-05  0.
-2.012079731130699e-07 1.531656609023138e-05  0.
-5.471718214478909e-07 1.5187050600647401e-05  0.
-1.1692482544312256e-06 1.4901067372162091e-05  0.
-2.0293787107992337e-06 1.4431055823928602e-05  0.
-3.0690393566354964e-06 1.3869067178087861e-05  0.
-4.326544333006789e-06 1.3543637880395594e-05  0.
-5.938797124236672e-06 1.4129489681039749e-05  0.
-7.646606959213762e-06 1.5309815684928407e-05  0.
-8.933400129268132e-06 1.574533732739467e-05  0.
0.0 1.7641535218091895e-05  0.
-1.532531341673443e-17 1.7641535218090932e-05  0.
-2.6271977945561364e-16 1.764153521807262e-05  0.
-4.024399453739246e-15 1.7641535217775816e-05  0.
-5.4807737123262715e-14 1.7641535213483897e-05  0.
-6.584218337200123e-13 1.7641535158536774e-05  0.
-6.9145534739212146e-12 1.7641534541086087e-05  0.
-6.281704243971393e-11 1.764152851221744e-05  0.
-4.876836280246699e-10 1.7641477966322878e-05  0.
-3.1894200175018252e-09 1.7641119243550312e-05  0.
-1.727694777771001e-08 1.763900095182857e-05  0.
-7.601692549829862e-08 1.762881009853463e-05  0.
-2.6589706427919716e-07 1.758988281500492e-05  0.
-7.248079775476623e-07 1.747543125658062e-05  0.
-1.5279610106793395e-06 1.7225966863181737e-05  0.
-2.5672483195688836e-06 1.6841894205913454e-05  0.
-3.7734552106256498e-06 1.647053734467976e-05  0.
-5.297247598963842e-06 1.643523386539271e-05  0.
-6.934330420597025e-06 1.7043752344229524e-05  0.
-8.506996193439224e-06 1.7600256819270478e-05  0.
-9.672576199507385e-06 1.7770927895245947e-05  0.
0.0 2.0082527714444783e-05  0.
-1.6810687374796344e-17 2.008252771444422e-05  0.
-2.8938918286494727e-16 2.0082527714434168e-05  0.
-4.454804873358704e-15 2.008252771427028e-05  0.
-6.099907823632176e-14 2.008252771188804e-05  0.
-7.371805068137398e-13 2.008252768121117e-05  0.
-7.792571040598289e-12 2.008252733427788e-05  0.
-7.130465690996347e-11 2.0082523922850906e-05  0.
-5.579335645067862e-10 2.008249510147658e-05  0.
-3.6796445444260134e-09 2.0082288847527868e-05  0.
-2.0106837955683415e-08 2.008106018678927e-05  0.
-8.921122587514489e-08 2.007509683126595e-05  0.
-3.1411112694077615e-07 2.005213682441666e-05  0.
-8.578720972692169e-07 1.9984341517763187e-05  0.
-1.7944889421094295e-06 1.983754610275099e-05  0.
-2.951113931225203e-06 1.962185387480582e-05  0.
-4.230745901732883e-06 1.9459506633552732e-05  0.
-5.862192462815286e-06 1.9545431530578615e-05  0.
-7.47334066274284e-06 1.9799810802216373e-05  0.
-8.752228070288758e-06 2.002091897696422e-05  0.
-1.0063141396728803e-05 2.043599637197288e-05  0.
0.0 2.244999999999998e-05  0.
-1.7340735747198115e-17 2.244999999999998e-05  0.
-2.9885314864511447e-16 2.244999999999998e-05  0.
-4.60794400176749e-15 2.244999999999998e-05  0.
-6.320937102269951e-14 2.244999999999998e-05  0.
-7.654042128724685e-13 2.244999999999998e-05  0.
-8.108525150888697e-12 2.244999999999998e-05  0.
-7.437292790920635e-11 2.244999999999998e-05  0.
-5.834556776265077e-10 2.244999999999998e-05  0.
-3.858711739465447e-09 2.244999999999998e-05  0.
-2.114641899552605e-08 2.244999999999998e-05  0.
-9.408609388210741e-08 2.244999999999998e-05  0.
-3.3201693158614957e-07 2.244999999999998e-05  0.
-9.074424020313133e-07 2.244999999999998e-05  0.
-1.893570475681641e-06 2.244999999999998e-05  0.
-3.0909370602270473e-06 2.244999999999998e-05  0.
-4.381805327252237e-06 2.244999999999998e-05  0.
-6.0190425716648445e-06 2.244999999999998e-05  0.
-7.672114606426183e-06 2.244999999999998e-05  0.
-8.776122830244611e-06 2.244999999999998e-05  0.
-1.0246218401309571e-05 2.244999999999998e-05  0.
</DataArray>
<DataArray type="Float64" Name="sigma_xx" NumberOfComponents="1" format="ascii" >
0.0064970251401064135 
0.0064970251401064135 
0.0064970251401064135 
0.0064970251401064135 
0.0064970251401064135 
0.006496725379889765 
0.006496125859456467 
0.006494316195926328 
0.006489475623538962 
0.006479439207396351 
0.0064586780368358606 
0.006417211206866111 
0.0063419935969477575 
0.006214528891490543 
0.006010836273162566 
0.005703848504623464 
0.005267331015801345 
0.0046809334186548295 
0.003923594782406779 
0.0027058022489256915 
0.0019125145911402786 
0.05490841115118881 
0.05490841115118881 
0.054908333435577085 
0.05490818355546876 
0.054907961510863836 
0.05490668475438552 
0.054902704604842235 
0.05489123600099786 
0.054861465370592534 
0.054791299275436224 
0.05463822172480091 
0.054329724052948315 
0.05375340172975028 
0.052749804524410124 
0.05111335243945801 
0.04860729041489263 
0.04499348116304701 
0.04007409959427831 
0.03366567025153698 
0.023656460124144008 
0.01724879128417455 
0.7373447408198783 
0.7373447408198783 
0.73734459093977 
0.7373440746860636 
0.7373416988087909 
0.7373313959391223 
0.7372952637307859 
0.7371834864766666 
0.7368750443159653 
0.7361053266929927 
0.734357086251691 
0.7307147886770335 
0.7237059951314959 
0.7111852662333715 
0.6903281279946325 
0.6578118050271085 
0.6102249650030698 
0.5446442630230306 
0.4582831336641389 
0.3221433841904541 
0.2347605110308847 
8.692915964836342 
8.692915964836342 
8.692915531849362 
8.692912811802952 
8.692897179862765 
8.692824732259293 
8.69254439539446 
8.69160592942286 
8.688838681880636 
8.681557178702445 
8.664258149826406 
8.626818615020678 
8.552429198172003 
8.415906405101477 
8.183277733220248 
7.813702063153013 
7.264324830558164 
6.497434101859765 
5.4756113088139085 
3.844310630940482 
2.7928668822063667 
89.50231049631438 
89.50231042414988 
89.50230860338412 
89.5022951585833 
89.50221145886947 
89.50178097544278 
89.49993991480551 
89.4932263240111 
89.47199161557504 
89.41271702478379 
89.26483665572246 
88.93134638698893 
88.24566843368406 
86.95071050390798 
84.6910619078933 
81.0296552300471 
75.49811506524226 
67.6730114723689 
57.11551204212737 
40.029177419964576 
28.966859949575138 
796.2315109688586 
796.2315103082759 
796.231503652489 
796.2314498954902 
796.2310766829182 
796.2289368501628 
796.2187648979933 
796.178201234454 
796.0396519013366 
795.6277015663812 
794.5440359202746 
791.9914909337853 
786.549534359526 
775.9611055507817 
757.0239647231023 
725.715116287051 
677.6306619132864 
608.6856548903617 
514.4325501638123 
359.63329711174987 
258.9339298586512 
6043.693996427011 
6043.693994378649 
6043.693973267758 
6043.69378635061 
6043.6923673856645 
6043.683384732155 
6043.636169617004 
6043.429394442243 
6042.665003580526 
6040.233758103363 
6033.476118244562 
6016.813989867529 
5979.948222109564 
5906.00337774527 
5770.468550100881 
5541.8860295974855 
5185.181468589371 
4666.977474640508 
3948.817483032106 
2750.6843075397737 
1967.3462865132933 
38553.557825260476 
38553.557820158996 
38553.557760828684 
38553.5571899298 
38553.552503894905 
38553.52016505219 
38553.334029633996 
38552.44304069581 
38548.873865701375 
38536.72962612353 
38501.014652075886 
38408.85190098952 
38197.26274049971 
37760.26516633944 
36940.44783954241 
35532.475256108686 
33303.74076283559 
30027.886887892808 
25425.43777582783 
17619.757304149214 
12490.087027938742 
202915.9552721426 
202915.95526007446 
202915.9551088288 
202915.95355644837 
202915.93992073357 
202915.83853919152 
202915.20669235557 
202911.92750610522 
202897.75529855327 
202846.26653868647 
202686.43332809472 
202255.64569277814 
201232.53159847192 
199063.81043117418 
194915.80784407316 
187690.2357919568 
176134.49657668528 
159006.03659483863 
134630.0955196111 
92597.38897128274 
64833.71871811581 
860976.9212533531 
860976.9212268577 
860976.9208754445 
860976.917074174 
860976.8816929428 
860976.6012734664 
860974.7290055144 
860964.2935522685 
860915.9604042429 
860729.3194004713 
860120.8270880175 
858416.849668833 
854255.9734369373 
845265.1773467709 
827864.9004037406 
797364.7007601667 
748468.6200698446 
675864.258571293 
571465.1100721611 
388637.7484701996 
267328.8073379575 
2857288.9257034487 
2857288.925649509 
2857288.924902978 
2857288.9164570672 
2857288.833840648 
2857288.142276403 
2857283.2436543503 
2857254.193315552 
2857111.1222879267 
2856527.2654472217 
2854539.215243362 
2848802.5372098647 
2834527.74739567 
2803440.005217025 
2743306.0517105637 
2638715.4188950593 
2473011.5824734904 
2229629.528987408 
1877972.8297351995 
1254900.6987785406 
840323.2362754749 
7123702.847724531 
7123702.847623001 
7123702.846166471 
7123702.829044385 
7123702.654311601 
7123701.122013524 
7123689.706800987 
7123618.308514634 
7123247.366627136 
7121657.742683724 
7116035.854674396 
7099448.221415969 
7057879.489620877 
6967917.631970037 
6797177.701924643 
6508715.956874117 
6068010.704655803 
5442093.417256786 
4543314.804146487 
2947934.1366899405 
1887759.3225908969 
12689746.59894709 
12689746.598769657 
12689746.59615152 
12689746.564357918 
12689746.228046361 
12689743.160474923 
12689719.311923468 
12689563.247371465 
12688714.416561153 
12684919.151155055 
12671051.024925813 
12629482.065994527 
12525746.276373817 
12306169.285279453 
11906194.090219215 
11268712.302295983 
10363751.00986281 
9167934.804011106 
7495972.53806092 
4599807.54046088 
2700619.8571446734 
15487331.724422332 
15487331.724134305 
15487331.719784448 
15487331.66548975 
15487331.073558275 
15487325.493047826 
15487280.525679134 
15486974.843492743 
15485246.436001234 
15477232.269202288 
15447116.598056154 
15355837.577714764 
15131044.249143075 
14673129.969875775 
13889704.11545082 
12752177.262499833 
11320293.95780873 
9656407.149185555 
7462508.089721311 
4018480.620146655 
1881411.8947502985 
13740269.241586352 
13740269.241150618 
13740269.234441105 
13740269.148748202 
13740268.19066312 
13740258.905989185 
13740181.823840965 
13739640.909025982 
13736481.061327653 
13721370.130647684 
13663204.881645523 
13485431.870407674 
13055761.637014505 
12225539.573061785 
10921636.424631651 
9254316.386238234 
7490295.315937936 
5771605.29784928 
3684512.86974435 
1233178.8612383262 
18268.52863397682 
12509454.882005274 
12509454.881389 
12509454.871746734 
12509454.74625226 
12509453.313818976 
12509439.114990652 
12509318.312173305 
12508448.154712098 
12503226.189341638 
12477601.489191873 
12376933.625512686 
12067192.189306015 
11334015.514326207 
10005214.13170096 
8138704.315598908 
6104977.584150464 
4394115.362385581 
2933675.0526154703 
1177699.1301532516 
-68472.11419810355 
-301325.69189847214 
13654453.70820166 
13654453.7073857 
13654453.69444941 
13654453.523518113 
13654451.53995017 
13654431.520543244 
13654257.838487932 
13652980.432091115 
13645147.303122088 
13605900.423101481 
13449115.55683415 
12964077.990313966 
11839029.908616288 
9937861.87770107 
7617823.222997697 
5540792.315840468 
4142164.382777361 
2861652.575208873 
1117165.5861329264 
-7575.523031990975 
-163614.08959362516 
13488983.359010294 
13488983.357996665 
13488983.34176531 
13488983.12480562 
13488980.575177096 
13488954.487017194 
13488724.763500195 
13487008.117650496 
13476306.500352971 
13421821.062852938 
13201297.75448399 
12516080.869210267 
10954133.230717612 
8488180.791838877 
5940876.742986214 
4155272.9518041816 
2934095.452995389 
1562953.6599853362 
-207313.45711570093 
-885682.2775782978 
-596040.8775698948 
13210462.5388989 
13210462.537716357 
13210462.518645056 
13210462.261648355 
13210459.214611288 
13210427.734185763 
13210147.6123223 
13208030.804858841 
13194680.098777812 
13125929.865681425 
12845045.089686066 
11969361.06294857 
9998947.873590488 
7059818.20281765 
4509350.97799785 
3214793.4865232096 
1858601.8288359868 
198080.85882275016 
-905082.3419487777 
-470793.274981054 
397458.79650869593 
13496078.823464103 
13496078.822167486 
13496078.801166696 
13496078.51679672 
13496075.127389446 
13496039.908165261 
13495724.563113196 
13493325.685159726 
13478090.798774282 
13399103.109500006 