<?xml version="1.0"?>
<VTKFile type="UnstructuredGrid" version="0.1" byte_order="LittleEndian" compressor="vtkZLibDataCompressor">
<UnstructuredGrid>
<Piece NumberOfPoints="441" NumberOfCells="400">
<PointData>
<DataArray type="Float64" Name="displacement" NumberOfComponents="3" format="ascii" >
0.0 3.725142313731275e-10  0.
-1.512818092275607e-16 3.725141206287382e-10  0.
-6.132424852607026e-16 3.72513555359344e-10  0.
-2.141390843548166e-15 3.7251149479312805e-10  0.
-6.7635126165049246e-15 3.725047626722241e-10  0.
-1.9480493648546606e-14 3.7248473638030697e-10  0.
-5.1466080209161186e-14 3.724301566996114e-10  0.
-1.25377670811109e-13 3.7229314408434034e-10  0.
-2.8296768576270385e-13 3.719748213269942e-10  0.
-5.941386304725158e-13 3.712874210010777e-10  0.
-1.1648605930075859e-12 3.6990247530935686e-10  0.
-2.139476175164418e-12 3.6729036696516545e-10  0.
-3.691689873870576e-12 3.626648011683876e-10  0.
-5.999438020648688e-12 3.549543973296297e-10  0.
-9.202489201632086e-12 3.4282863261762643e-10  0.
-1.334833594307655e-11 3.248020541410574e-10  0.
-1.8339960537213316e-11 2.994263229689068e-10  0.
-2.3913382671488046e-11 2.655609293686908e-10  0.
-2.975927316495714e-11 2.228696586037275e-10  0.
-3.761063693858083e-11 1.750233683964764e-10  0.
-7.970632385747267e-11 1.7788371185013858e-10  0.
0.0 1.1773783315711695e-09  0.
-3.434624493588579e-16 1.1773781145262175e-09  0.
-1.4549356811387477e-15 1.1773769554554015e-09  0.
-5.314554695255114e-15 1.1773724914452443e-09  0.
-1.7502136362314898e-14 1.1773571336610292e-09  0.
-5.2364123151004303e-14 1.1773092665083554e-09  0.
-1.4316992482612753e-13 1.1771732446743134e-09  0.
-3.596626400364899e-13 1.1768188457409355e-09  0.
-8.342693786173086e-13 1.1759678452664765e-09  0.
-1.7947524555120376e-12 1.1740757766859077e-09  0.
-3.5950260505135697e-12 1.170164541441667e-09  0.
-6.728421750274928e-12 1.1626195829215217e-09  0.
-1.1802535692945464e-11 1.148993342852573e-09  0.
-1.9456375086248847e-11 1.1258880070745372e-09  0.
-3.021338497301382e-11 1.089011231774145e-09  0.
-4.428726890534697e-11 1.0334920167732137e-09  0.
-6.13887170613427e-11 9.544998586629986e-10  0.
-8.064426830547544e-11 8.48170765231119e-10  0.
-1.0136502481051037e-10 7.134334895225404e-10  0.
-1.3368634621932718e-10 5.659330412038752e-10  0.
-3.265722993479979e-10 5.985500050149582e-10  0.
0.0 6.257568071377413e-09  0.
-1.308914329670018e-15 6.257567318253122e-09  0.
-5.8086281291710155e-15 6.257563133919278e-09  0.
-2.223936345858326e-14 6.257546229639101e-09  0.
-7.649273160826653e-14 6.257485374770084e-09  0.
-2.380509221360629e-13 6.257287670210146e-09  0.
-6.742853250384133e-13 6.256704428170699e-09  0.
-1.7481294456766567e-12 6.2551330115147055e-09  0.
-4.169754239616885e-12 6.251245467989365e-09  0.
-9.193821202996003e-12 6.2423712610103826e-09  0.
-1.8817592021952687e-11 6.223596574473819e-09  0.
-3.588792205299374e-11 6.186637592866475e-09  0.
-6.398801193010954e-11 6.118702073682031e-09  0.
-1.0697810857867268e-10 6.001737459416695e-09  0.
-1.6813638947934913e-10 5.812597357575519e-09  0.
-2.489894267934632e-10 5.524641773004654e-09  0.
-3.4811601772138814e-10 5.111060671648675e-09  0.
-4.6061396018038187e-10 4.550048385213206e-09  0.
-5.827412101450448e-10 3.835879829332081e-09  0.
-7.743825843910982e-10 3.0575642064142745e-09  0.
-1.8744647817485576e-09 3.279102369347392e-09  0.
0.0 2.9614658165095153e-08  0.
-4.472519854380605e-15 2.9614655754280054e-08  0.
-2.0734561134585085e-14 2.961464184728937e-08  0.
-8.29751209137968e-14 2.9614583082690384e-08  0.
-2.9732868240408205e-13 2.9614362340088565e-08  0.
-9.603419948059725e-13 2.961361683434788e-08  0.
-2.8122408697519226e-12 2.9611339584385906e-08  0.
-7.509487495866724e-12 2.960501102534065e-08  0.
-1.8384068067059666e-11 2.958892125397124e-08  0.
-4.1467389284445116e-11 2.9551303814252883e-08  0.
-8.656790586851733e-11 2.9470046625328625e-08  0.
-1.6793802182373332e-10 2.930718942396448e-08  0.
-3.03842879073659e-10 2.9003191020889616e-08  0.
-5.143425279185315e-10 2.8472886888523092e-08  0.
-8.169441221689267e-10 2.7605777521311206e-08  0.
-1.2205538825667795e-09 2.6273272094860937e-08  0.
-1.7192023245474635e-09 2.434449294085936e-08  0.
-2.289540907530532e-09 2.1711989381619788e-08  0.
-2.918384346643593e-09 1.835252177422934e-08  0.
-3.93364839006083e-09 1.4752169238064143e-08  0.
-9.232464766999873e-09 1.601445758549639e-08  0.
0.0 1.2075000934825656e-07  0.
-1.3878477406526214e-14 1.2075000235118928e-07  0.
-6.702703702998817e-14 1.2074996054842692e-07  0.
-2.7954820932170494e-13 1.207497763987921e-07  0.
-1.0407730383130048e-12 1.2074905693778221e-07  0.
-3.479457055281915e-12 1.2074653924492036e-07  0.
-1.0505236487759757e-11 1.2073860240248707e-07  0.
-2.8811613910154036e-11 1.207159302621288e-07  0.
-7.2185173586696e-11 1.2065690247522104e-07  0.
-1.6608282575851827e-10 1.2051606962349505e-07  0.
-3.526056346278922e-10 1.2020660042519105e-07  0.
-6.937900135518306e-10 1.1957742111280743e-07  0.
-1.2701209666857072e-09 1.1838901691076849e-07  0.
-2.171024314298796e-09 1.1629589272724253e-07  0.
-3.475793935531457e-09 1.1284673529834714e-07  0.
-5.2267382565911144e-09 1.0751331456059358e-07  0.
-7.401593648824018e-09 9.975513940842193e-08  0.
-9.905485843984053e-09 8.912956152628952e-08  0.
-1.271729374520385e-08 7.558580778568878e-08  0.
-1.7402031940405345e-08 6.145646905169644e-08  0.
-3.9349694927592815e-08 6.771578463160098e-08  0.
0.0 4.181452890392586e-07  0.
-3.9349290522940917e-14 4.1814527054958014e-07  0.
-1.9736488029254528e-13 4.1814515644800443e-07  0.
-8.551664261530259e-13 4.1814463421728056e-07  0.
-3.2979333255506726e-12 4.181425192328923e-07  0.
-1.137680793611555e-11 4.1813487656453735e-07  0.
-3.529738551885893e-11 4.1811010546733686e-07  0.
-9.907412734826439e-11 4.180376704528241e-07  0.
-2.5305963358734186e-10 4.178454255564901e-07  0.
-5.915051971281513e-10 4.173796412616995e-07  0.
-1.2717816829222169e-09 4.1634381857600756e-07  0.
-2.527205899430594e-09 4.142190235713606e-07  0.
-4.661295058551654e-09 4.101802933359092e-07  0.
-8.011340739976452e-09 4.030375999704392e-07  0.
-1.2875697412496347e-08 3.9123981050462205e-07  0.
-1.9413472122013182e-08 3.7297812044323477e-07  0.
-2.754528501787575e-08 3.464121678142521e-07  0.
-3.694825859190981e-08 3.1007311076107014e-07  0.
-4.7741567187443186e-08 2.6410421420958917e-07  0.
-6.638177377980871e-08 2.182489119637948e-07  0.
-1.4345031128044826e-07 2.4496264077129935e-07  0.
0.0 1.2095547959907756e-06  0.
-1.0237596302438535e-13 1.2095547513519963e-06  0.
-5.315874630340434e-13 1.2095544675759226e-06  0.
-2.385156657990138e-12 1.2095531227215732e-06  0.
-9.498374790195793e-12 1.20954749569019e-06  0.
-3.370273202944494e-11 1.2095265704621273e-06  0.
-1.0707560301970526e-10 1.209457104463143e-06  0.
-3.0636811571716066e-10 1.2092500851910708e-06  0.
-7.942465228971105e-10 1.2086928580822207e-06  0.
-1.8767663441103797e-09 1.2073298610329255e-06  0.
-4.064796362676498e-09 1.2042823981983484e-06  0.
-8.111446509651534e-09 1.1980200869607228e-06  0.
-1.4985161688023197e-08 1.1861329121353062e-06  0.
-2.5741953889429932e-08 1.165191547247861e-06  0.
-4.128641372702981e-08 1.1308032384891193e-06  0.
-6.20610675625576e-08 1.0779515633784633e-06  0.
-8.777364351905362e-08 1.0016696613685962e-06  0.
-1.1753408772026173e-07 8.983014739972148e-07  0.
-1.5265305460678631e-07 7.700416086119249e-07  0.
-2.158050198098398e-07 6.518210826000889e-07  0.
-4.411799396438506e-07 7.485404970951252e-07  0.
0.0 2.8676757307229946e-06  0.
-2.450750759940049e-13 2.8676756321677386e-06  0.
-1.3132212783068115e-12 2.867674988471725e-06  0.
-6.081786440250095e-12 2.8676718402594504e-06  0.
-2.4932321074911328e-11 2.86765827530132e-06  0.
-9.071016198565435e-11 2.8676065337281232e-06  0.
-2.9408543037145256e-10 2.867431247865266e-06  0.
-8.542901644726351e-10 2.8669011999405088e-06  0.
-2.2372933937265908e-09 2.865461892319692e-06  0.
-5.315429921805302e-09 2.861930101146853e-06  0.
-1.152622700340998e-08 2.8540496347837045e-06  0.
-2.2942554137803925e-08 2.8379655182813617e-06  0.
-4.214393356289196e-08 2.807767607358294e-06  0.
-7.180360285690312e-08 2.7553349217166217e-06  0.
-1.1401592240728394e-07 2.6707084216902857e-06  0.
-1.6952099482135758e-07 2.5431142772929767e-06  0.
-2.372256448362701e-07 2.3626736391343733e-06  0.
-3.152976277580259e-07 2.1238337653791725e-06  0.
-4.1092780109032035e-07 1.83969364769743e-06  0.
-5.904868228876542e-07 1.6156953955570093e-06  0.
-1.1276029262544036e-06 1.9072114043596682e-06  0.
0.0 5.477435849455632e-06  0.
-5.407582207907115e-13 5.4774356505490084e-06  0.
-2.980844668287207e-12 5.477434319330889e-06  0.
-1.4203394971734696e-11 5.47742762171029e-06  0.
-5.975924911426641e-11 5.477397995761982e-06  0.
-2.2226270636013845e-10 5.4772824430658365e-06  0.
-7.328914237984759e-10 5.476884320518838e-06  0.
-2.1530196650237803e-09 5.47566781644424e-06  0.
-5.669320581775475e-09 5.4723526132972495e-06  0.
-1.3467913339520485e-08 5.4642438385504335e-06  0.
-2.9051166162711207e-08 5.4463278201225246e-06  0.
-5.725770008997705e-08 5.410343292184359e-06  0.
-1.0372799984547346e-07 5.344244229197349e-06  0.
-1.7372230150028967e-07 5.232546541687899e-06  0.
-2.704958829471483e-07 5.0578928161102774e-06  0.
-3.938726620257154e-07 4.80374228526994e-06  0.
-5.401428066924932e-07 4.458132686330006e-06  0.
-7.073048628686257e-07 4.02219917596906e-06  0.
-9.232043385563135e-07 3.5488641927371268e-06  0.
-1.3448875081678383e-06 3.2991682500530437e-06  0.
-2.362932194341431e-06 4.012260572161035e-06  0.
0.0 8.414608816397566e-06  0.
-1.1029530859750368e-12 8.414608448543088e-06  0.
-6.235520296806577e-12 8.414605932190209e-06  0.
-3.0474832864870364e-11 8.41459294857036e-06  0.
-1.312103603241791e-10 8.414534164211003e-06  0.
-4.974692103616334e-10 8.414300378756656e-06  0.
-1.6633137232278094e-09 8.413483682204314e-06  0.
-4.92363204575304e-09 8.410971355529252e-06  0.
-1.2977525307609095e-08 8.404133247728717e-06  0.
-3.065940586850812e-08 8.387564514967098e-06  0.
-6.536783553954083e-08 8.351592482154387e-06  0.
-1.2663174913844905e-07 8.281156575254031e-06  0.
-2.2436489405097664e-07 8.155980466623854e-06  0.
-3.6595865589476206e-07 7.95283180302568e-06  0.
-5.531265151088313e-07 7.649927325502234e-06  0.
-7.803007559955594e-07 7.232656760262498e-06  0.
-1.0375726172855339e-06 6.700857612899486e-06  0.
-1.328274307702288e-06 6.089380598463084e-06  0.
-1.7334402723350894e-06 5.5557944680101314e-06  0.
-2.539258186306239e-06 5.609527867172097e-06  0.
-4.043375738103126e-06 6.978564081590714e-06  0.
0.0 1.0825580892844552e-05  0.
-2.0906355343966226e-12 1.0825580264795668e-05  0.
-1.2087851331360358e-11 1.0825575884249945e-05  0.
-6.04212437976261e-11 1.0825552771625265e-05  0.
-2.655011814607494e-10 1.0825445954111176e-05  0.
-1.0235298810759558e-09 1.0825013896819717e-05  0.
-3.461012651868085e-09 1.0823487467082832e-05  0.
-1.0291079137154192e-08 1.0818774695994377e-05  0.
-2.7042844340074417e-08 1.0806016542038565e-05  0.
-6.321887724493752e-08 1.077556573384024e-05  0.
-1.3242326532209172e-07 1.0711074671690822e-05  0.
-2.5038152371072816e-07 1.0589075797486338e-05  0.
-4.305032476551793e-07 1.0381555819566973e-05  0.
-6.780566376858076e-07 1.0062153758777742e-05  0.
-9.859509393243789e-07 9.61460025814818e-06  0.
-1.3352576624806777e-06 9.0415294593119e-06  0.
-1.7080108651373253e-06 8.377146333336403e-06  0.
-2.1302996569017875e-06 7.734880916981738e-06  0.
-2.780948233017782e-06 7.465088625160192e-06  0.
-4.026514263323097e-06 8.293606899432018e-06  0.
-5.769748829941762e-06 1.0269848044927585e-05  0.
0.0 1.2864536777165838e-05  0.
-3.702689468571148e-12 1.286453578168388e-05  0.
-2.1839046210334185e-11 1.286452871794364e-05  0.
-1.11360050874015e-10 1.2864490706661097e-05  0.
-4.982299732370483e-10 1.2864311821395835e-05  0.
-1.9488117568644193e-09 1.28635775182294e-05  0.
-6.65060096634685e-09 1.2860959191767902e-05  0.
-1.9815802312020124e-08 1.2852864350928842e-05  0.
-5.174619850286694e-08 1.2831139734447647e-05  0.
-1.1918388172005271e-07 1.278031140226456e-05  0.
-2.439744865949689e-07 1.2675992487704634e-05  0.
-4.474808389875988e-07 1.2486908486242436e-05  0.
-7.416684114302472e-07 1.218210136951381e-05  0.
-1.1206606345825302e-06 1.174185727950483e-05  0.
-1.5585358196451829e-06 1.1168396830911656e-05  0.
-2.0192947060416604e-06 1.0493692944718357e-05  0.
-2.4881545645005517e-06 9.802036748742824e-06  0.
-3.052830000265975e-06 9.32585299979778e-06  0.
-4.004783882295957e-06 9.637314216250813e-06  0.
-5.590683200009954e-06 1.1341991244982336e-05  0.
-7.293513220055653e-06 1.3376526913174815e-05  0.
0.0 1.532312810162128e-05  0.
-6.141075446119743e-12 1.5323126641594908e-05  0.
-3.686109685235319e-11 1.5323116122911477e-05  0.
-1.9128546862580733e-10 1.532305852766692e-05  0.
-8.694959655770269e-10 1.5322783111800108e-05  0.
-3.444315896974657e-09 1.532163787412686e-05  0.
-1.1843104886287371e-08 1.5317522777410804e-05  0.
-3.529776253796216e-08 1.5304803722997204e-05  0.
-9.138017711143822e-08 1.5271042896119613e-05  0.
-2.0665593474476914e-07 1.5193917579527644e-05  0.
-4.116182371899213e-07 1.5041429861129789e-05  0.
-7.288400889233551e-07 1.4778568552582133e-05  0.
-1.15906208933643e-06 1.4380208265666585e-05  0.
-1.6746785123769837e-06 1.3844022826436255e-05  0.
-2.2272800904142997e-06 1.319642452962508e-05  0.
-2.7778534365651897e-06 1.249652091980387e-05  0.
-3.353478976896541e-06 1.1881889896975725e-05  0.
-4.150468883915476e-06 1.1723443581707415e-05  0.
-5.490904665561918e-06 1.2674319843361891e-05  0.
-7.239793438593009e-06 1.465967791402203e-05  0.
-8.812975450334599e-06 1.6114638553207532e-05  0.
0.0 1.788068899108117e-05  0.
-9.54751118173943e-12 1.7880687017303058e-05  0.
-5.818475680175346e-11 1.7880672607767983e-05  0.
-3.065681389771563e-10 1.7880592506347488e-05  0.
-1.4127940124967025e-09 1.7880204106675786e-05  0.
-5.6576061692606916e-09 1.7878570940258505e-05  0.
-1.9572075366776356e-08 1.787266543261417e-05  0.
-5.827408168958585e-08 1.7854438253076287e-05  0.
-1.4930880953135716e-07 1.7806662176191682e-05  0.
-3.306856232093899e-07 1.7700417728847698e-05  0.
-6.386995934086726e-07 1.7499108069426095e-05  0.
-1.0881834299879142e-06 1.717120455055824e-05  0.
-1.6571565685403833e-06 1.6706467367149097e-05  0.
-2.2926857362489845e-06 1.612325499807463e-05  0.
-2.93994242604746e-06 1.5461606039381893e-05  0.
-3.5919504753173427e-06 1.4796250006715004e-05  0.
-4.373114751597916e-06 1.4334273840304545e-05  0.
-5.567263925353993e-06 1.4588259947758766e-05  0.
-7.3289599797787e-06 1.5987223807130873e-05  0.
-9.07433609139105e-06 1.7550707156823617e-05  0.
-1.047730844531805e-05 1.85144544599238e-05  0.
0.0 2.008851485304135e-05  0.
-1.394900963166414e-11 2.008851239125538e-05  0.
-8.61171300646046e-11 2.0088494216203153e-05  0.
-4.596639909217554e-10 2.008839188214031e-05  0.
-2.143274669792424e-09 2.008788981412966e-05  0.
-8.662016020095286e-09 2.0085758827573367e-05  0.
-3.0110694574308276e-08 2.007801448422049e-05  0.
-8.947941492786543e-08 2.0054165282429875e-05  0.
-2.2668470639924293e-07 1.9992484712197223e-05  0.
-4.908839096584075e-07 1.985921401372754e-05  0.
-9.171884430870375e-07 1.9618222017194906e-05  0.
-1.5009944199504352e-06 1.924924955807984e-05  0.
-2.1918777978728945e-06 1.87602872579702e-05  0.
-2.9239745406552294e-06 1.8180872496723828e-05  0.
-3.67378141152264e-06 1.7546945664359802e-05  0.
-4.507774505770718e-06 1.694995422528344e-05  0.
-5.645447757813691e-06 1.6716799900650593e-05  0.
-7.31815500608707e-06 1.7413751957365516e-05  0.
-9.273171374771722e-06 1.892057537138682e-05  0.
-1.0837219713750104e-05 1.9916175718145862e-05  0.
-1.2109428936768547e-05 2.1041250956706578e-05  0.
0.0 2.2532540180689994e-05  0.
-1.918380446910127e-11 2.2532537368526237e-05  0.
-1.1972595519012377e-10 2.2532516409946893e-05  0.
-6.460308287689958e-10 2.253239712977319e-05  0.
-3.041924138403507e-09 2.25318061184766e-05  0.
-1.238828915091388e-08 2.2529277880932912e-05  0.
-4.322923832041934e-08 2.2520052583083813e-05  0.
-1.2816487339520982e-07 2.2491713714157468e-05  0.
-3.2102837361061926e-07 2.2419378414703886e-05  0.
-6.795460241980173e-07 2.226755151260022e-05  0.
-1.2273392804184212e-06 2.200611464836232e-05  0.
-1.930054317635619e-06 2.163105521182283e-05  0.
-2.717340091031586e-06 2.1163302011515633e-05  0.
-3.540401600072659e-06 2.0624886208883375e-05  0.
-4.442571356274202e-06 2.0043068623132643e-05  0.
-5.571168815372723e-06 1.9567010130904685e-05  0.
-7.1172882643829015e-06 1.9659690527014335e-05  0.
-9.079202822208256e-06 2.0688253394128894e-05  0.
-1.0805687221839096e-05 2.1847823388324715e-05  0.
-1.2123854661009442e-05 2.242412031572963e-05  0.
-1.3473423159614557e-05 2.3779006513451562e-05  0.
0.0 2.494723083110101e-05  0.
-2.4854213644080525e-11 2.4947227927169885e-05  0.
-1.564814431274697e-10 2.494720611786659e-05  0.
-8.518098938758833e-10 2.4947080907153763e-05  0.
-4.0428163304342226e-09 2.4946455503463525e-05  0.
-1.656622544858948e-08 2.494376300623251e-05  0.
-5.797925210690989e-08 2.4933906590041916e-05  0.
-1.7148421951598582e-07 2.4903701674675362e-05  0.
-4.2501533111389256e-07 2.4827521527193476e-05  0.
-8.804839849218703e-07 2.4671930466108304e-05  0.
-1.5390951346745465e-06 2.4416642423379496e-05  0.
-2.3322489377711907e-06 2.4073407036796376e-05  0.
-3.1949051718410024e-06 2.3664988346340027e-05  0.
-4.1327685226110856e-06 2.3190735585944495e-05  0.
-5.2474742062763225e-06 2.2688197439244757e-05  0.
-6.700433553120489e-06 2.2407395174702536e-05  0.
-8.485819586197182e-06 2.2823028431231353e-05  0.
-1.030354966276689e-05 2.387277563490271e-05  0.
-1.168969097121404e-05 2.4448013899159205e-05  0.
-1.2975008887581286e-05 2.488045101910405e-05  0.
-1.4294327182501385e-05 2.5874129569031302e-05  0.
0.0 2.7266299663499892e-05  0.
-3.037280598899006e-11 2.7266297006266938e-05  0.
-1.9252450576823912e-10 2.7266276932852683e-05  0.
-1.0551365208675346e-09 2.7266160921083624e-05  0.
-5.038585458398417e-09 2.7265577920995572e-05  0.
-2.0744634444758876e-08 2.7263055884664558e-05  0.
-7.276200619787552e-08 2.725380208090574e-05  0.
-2.1473991241139027e-07 2.722550715236252e-05  0.
-5.274024378033785e-07 2.7154873570967975e-05  0.
-1.0721722059928731e-06 2.7014022295800496e-05  0.
-1.820182470729383e-06 2.679293733076628e-05  0.
-2.671533403659481e-06 2.651316052617729e-05  0.
-3.5990974935489808e-06 2.6189884400780935e-05  0.
-4.688160803949916e-06 2.580003710499089e-05  0.
-6.025902984776969e-06 2.5412406649534877e-05  0.
-7.671952269401376e-06 2.535432134903615e-05  0.
-9.419435087464604e-06 2.5910189668643558e-05  0.
-1.0876926066605477e-05 2.6605914845469715e-05  0.
-1.2262395336226861e-05 2.681942670533367e-05  0.
-1.3639579620221702e-05 2.738508334304297e-05  0.
-1.4801891181799667e-05 2.780091427996976e-05  0.
0.0 2.9707322933440424e-05  0.
-3.5031879395456517e-11 2.970732089465791e-05  0.
-2.2312607219541316e-10 2.97073054276899e-05  0.
-1.2287465791956e-09 2.9707215606324917e-05  0.
-5.893192093575373e-09 2.9706762212934075e-05  0.
-2.4344810325796555e-08 2.9704793928447486e-05  0.
-8.551881491792718e-08 2.9697559477809686e-05  0.
-2.5195848449807607e-07 2.967547464766441e-05  0.
-6.145158738622311e-07 2.9620765269192726e-05  0.
-1.2310361632514535e-06 2.951366995119797e-05  0.
-2.0418968403998587e-06 2.935149304833613e-05  0.
-2.924409368698977e-06 2.9156302535980473e-05  0.
-3.910749253877958e-06 2.8933859557426906e-05  0.
-5.163883193660191e-06 2.8653213930494916e-05  0.
-6.6632580054735035e-06 2.8401330220408487e-05  0.
-8.294789039427168e-06 2.8485502678915693e-05  0.
-9.90467989412835e-06 2.8946478006932905e-05  0.
-1.1270123608878515e-05 2.92273156344569e-05  0.
-1.2754998084360716e-05 2.9372408675875973e-05  0.
-1.4055476634152553e-05 2.985777757908243e-05  0.
-1.536329025255752e-05 3.0035573127891957e-05  0.
0.0 3.205474903916869e-05  0.
-3.8155625024362836e-11 3.205474792953481e-05  0.
-2.437203958676042e-10 3.2054739490771835e-05  0.
-1.3460229794465274e-09 3.205469034772215e-05  0.
-6.472458793702526e-09 3.205444165172622e-05  0.
-2.6791403865833562e-08 3.205335983280704e-05  0.
-9.419657166063564e-08 3.204937989636898e-05  0.
-2.7722337401030574e-07 3.203724356951389e-05  0.
-6.731826637030465e-07 3.2007324863828425e-05  0.
-1.3360024351639723e-06 3.19494455418917e-05  0.
-2.1830013667326617e-06 3.1863839553654986e-05  0.
-3.0787493212553473e-06 3.1764216532573714e-05  0.
-4.1095384239849845e-06 3.1651099987797026e-05  0.
-5.490463808862021e-06 3.150369909326627e-05  0.
-7.064990128768205e-06 3.1384772552567176e-05  0.
-8.585295792899758e-06 3.1470691838921033e-05  0.
-1.0154935024848803e-05 3.170543289121606e-05  0.
-1.1627579198886514e-05 3.1800287966374515e-05  0.
-1.2994780828522379e-05 3.190905322681649e-05  0.
-1.4324937749738383e-05 3.205976326000239e-05  0.
-1.556825279570974e-05 3.220806252317737e-05  0.
0.0 3.445e-05  0.
-3.92565373571073e-11 3.445e-05  0.
-2.5099180288106706e-10 3.445e-05  0.
-1.3875067506403152e-09 3.445e-05  0.
-6.6777013644330066e-09 3.445e-05  0.
-2.7659363332228738e-08 3.445e-05  0.
-9.727654897560121e-08 3.445e-05  0.
-2.861809414454625e-07 3.445e-05  0.
-6.938983895859013e-07 3.445e-05  0.
-1.3727015429523758e-06 3.445e-05  0.
-2.231356144262288e-06 3.445e-05  0.
-3.1304928254284615e-06 3.445e-05  0.
-4.178211040727049e-06 3.445e-05  0.
-5.607076381665009e-06 3.445e-05  0.
-7.199114086541024e-06 3.445e-05  0.
-8.665013380571225e-06 3.445e-05  0.
-1.0247550250576313e-05 3.445e-05  0.
-1.1757297395725267e-05 3.445e-05  0.
-1.302423807974372e-05 3.445e-05  0.
-1.447948874307684e-05 3.445e-05  0.
-1.5486429370569143e-05 3.445e-05  0.
</DataArray>
<DataArray type="Float64" Name="sigma_xx" NumberOfComponents="1" format="ascii" >
4507.2397185874615 
4507.2359339815 
4507.218035632031 
4507.158784194941 
4506.98259327753 
4506.502991219462 
4505.300288160095 
4502.507382531105 
4496.473753667905 
4484.297238871447 
4461.2565485935265 
4420.242908753645 
4351.362744547947 
4241.936732846118 
4077.1199279310263 
3841.280010008495 
3520.030729997624 
3101.573215413821 
2562.98526294385 
1654.8692670592663 
1050.509441669067 
16478.21834738216 
16478.208815628997 
16478.16231806209 
16478.002231207203 
16477.507874884664 
16476.11461464415 
16472.508248577262 
16463.88934592457 
16444.779383564804 
16405.299754163043 
16329.00787008617 
16190.624405981729 
15954.286153752048 
15573.20327159883 
14991.647287837524 
14149.907399105261 
12991.99228085301 
11471.777631411045 
9511.549103455305 
6405.83191483801 
4404.619379477779 
79625.96094832628 
79625.9258675713 
79625.74948577325 
79625.11948604863 
79623.10691952964 
79617.26333102211 
79601.7424857076 
79563.82141328929 
79478.15580809923 
79298.3837920813 
78946.44570521633 
78301.24726082297 
77189.79855369788 
75385.19564054822 
72616.01965268535 
68590.27201251143 
63032.42866012303 
55709.65750198163 
46208.33667155209 
31140.246353025796 
21444.736484710338 
320603.5474648593 
320603.43090453686 
320602.8286795281 
320600.60685452627 
320593.2986568626 
320571.5426803617 
320512.54612360237 
320365.95620135154 
320030.38252559333 
319319.04692585603 
317916.3321504196 
315332.2746941855 
310868.1851220289 
303611.01646000636 
292474.163867945 
276295.1652747147 
253979.6763930179 
224567.79222705384 
186117.35271541192 
124380.58349879817 
84501.75150910285 
1088156.456714517 
1088156.103589316 
1088154.2318487256 
1088147.1172048347 
1088123.0925973759 
1088050.0140095418 
1087848.471750696 
1087341.436162106 
1086171.0266157035 
1083678.542999977 
1078756.8102232271 
1069703.15167634 
1054120.969752439 
1028928.713404045 
990527.1518349353 
935143.3171465525 
859279.5588842735 
759699.2142651912 
628581.0760474795 
415423.1332056001 
277260.25150278094 
3050654.207243674 
3050653.226791432 
3050647.904901398 
3050627.1183784893 
3050555.278340607 
3050332.783622913 
3049711.3579091923 
3048136.3290260313 
3044491.477116278 
3036745.249677507 
3021543.1142120957 
2993850.656649717 
2946797.961915017 
2871878.0001332783 
2759584.5349127115 
2600438.9360984582 
2386015.221450668 
2107695.8855239544 
1738809.3971677977 
1131571.319699531 
736892.3081074225 
6868135.795773786 
6868133.2938028835 
6868119.413211104 
6868063.851904422 
6867867.907045757 
6867252.225013551 
6865518.340378343 
6861114.5266521815 
6850963.553110229 
6829598.53830957 
6788300.576844478 
6714578.614959657 
6592388.6561249485 
6403344.501149491 
6128848.315794425 
5752558.523484231 
5261528.081898993 
4638346.031621916 
3806724.443920385 
2421656.4413182447 
1520638.7240011822 
11976832.382356178 
11976826.503322057 
11976793.233683221 
11976657.118683703 
11976168.712745905 
11974617.133485353 
11970230.424350336 
11959126.814910576 
11933807.626593959 
11881476.591176303 
11782862.633889204 
11612481.524757963 
11341092.047913974 
10940342.452468848 
10388396.568126583 
9674038.151671506 
8793641.66885875 
7720126.117153589 
6272163.865249222 
3843945.6571288593 
2272130.1843390255 
15574631.876093576 
15574619.121533187 
15574545.64140794 
15574239.141875628 
15573123.13649619 
15569549.772542216 
15559448.326440535 
15534102.973069444 
15477325.260266913 
15363100.39081212 
15155579.574260237 
14813373.374714088 
14298705.513803665 
13589484.295599721 
12689395.341736048 
11629099.663277455 
10444620.688502902 
9090013.686075315 
7211115.037300683 
4107287.913439414 
2147391.7493533585 
15015224.300459601 
15015198.628114134 
15015048.32776919 
15014410.539252862 
15012059.129641816 
15004489.481344476 
14983165.810479743 
14930383.262771243 
14814980.835055139 
14590967.95027256 
14203097.335213024 
13601780.87954697 
12764953.106582161 
11718107.09949324 
10540983.265420344 
9347194.45724591 
8214491.554918854 
7008406.275054513 
5171614.2605875805 
2423311.276436166 
852488.1472688462 
12487690.398507819 
12487642.200744962 
12487355.896927826 
12486122.217016848 
12481524.643484913 
12466671.546931442 
12425083.5014294 
12323935.996772677 
12109409.232271435 
11711045.15756804 
11061486.09060967 
10130345.191282546 
8959293.738556584 
7676012.047554681 
6468272.793415911 
5506199.46424406 
4789757.068641474 
3919896.620998209 
2239002.1144281765 
412172.0941461378 
-289975.4835193916 
12621655.992793866 
12621571.332797688 
12621061.856076494 
12618836.436335571 
12610465.714672329 
12583366.365858182 
12508100.579314817 
12328871.049860809 
11962310.216409232 
11317046.559148004 
10339334.631640377 
9068876.178504832 
7668362.251433636 
6392537.528355852 
5482053.033086481 
5005184.661622623 
4641413.929674236 
3608300.3449844113 
1542867.2239795306 
17241.96933345101 
-249930.01176528446 
14080398.647568662 
14080259.30576761 
14079411.083836406 
14075661.606351897 
14061447.124424668 
14015389.389653053 
13888697.539540242 
13594199.242200306 
13016793.00125204 
12062803.874031479 
10740236.628488392 
9220938.527027057 
7814514.185731289 
6834843.910838498 
6400306.016300422 
6239840.698176259 
5604485.911115797 
3682245.46994726 
1141422.4987597142 
-148744.532514286 
-260151.64350832952 
13374943.329210777 
13374727.968833856 
13373403.809379699 
13367489.74416548 
13344920.291115033 
13271790.369613118 
13072737.918432824 
12621973.854515774 
11779053.410384636 
10485464.303757347 
8873415.850621663 
7285431.310072472 
6121352.45601397 
5569563.0252094865 
5411686.214068217 
4953823.494004377 
3351910.4369641533 
634690.9516952969 
-1183360.6765739298 
-907277.5228116054 
-349827.7519120979 
13055408.629030924 
13055095.481797097 
13053153.431837426 
13044402.684618622 
13010822.054720782 
12902070.705234459 
12609215.197771067 
11963668.710147522 
10816770.799710084 
9199264.998919906 
7424826.0773482695 
5978503.644053426 
5191377.457930485 
4906256.218507104 
4502116.731254648 
3200127.9055758147 
705807.9321821206 
-1591241.4556971649 
-1672631.6280512738 
-237969.35146167153 
502034.3449520832 
13637254.646456165 
13636825.757661054 
13634146.63533704 
13621985.192803409 
13575103.731710397 
13423406.875672605 
13019102.07665164 
12151216.963321188 
10689320.925959058 
8814263.018635467 
7049902.919387912 
5903610.376216596 
5417534.699921858 
5014272.231680219 
3903740.0116381673 
1856669.0490489781 
-471767.5876824239 
-1175958.8041503879 
-141349.1036400257 
265278.1022318455 
34414.2612185278 
13285653.351983158 
13285099.39513986 
13281618.6478364 
13265723.523009367 
13204226.74937347 
13005430.811948383 
12480528.52039501 
11381164.743214473 
9624107.530952176 
7590898.331195022 
6001251.908071781 
5192466.43905184 
4728020.15059377 
3841456.0846331795 
2059846.2564898278 
7950.298891914543 
-1055603.5956218385 
-593694.0095252201 
145883.93822245277 
-242195.06025103177 
-756812.4499936844 
13359688.150754396 
13359012.809368726 
13354750.032117112 
13335193.527088929 
13259321.877140244 
13014281.257503156 
12372332.670015678 
11056002.13216603 
9050683.656420851 
6960905.67328346 
5650924.496937162 
5097439.674983941 
4314828.770416128 
2839260.207040517 
983042.0401323205 
-368094.70650399034 
-225714.12087944453 
36836.631420239806 
-91552.98315218114 
2559.7050608845893 
-30127.206226346083 
13439413.300158128 
13438635.665450277 
13433711.324194802 
13411045.47876385 
13322939.792051889 
13038598.252705542 
12298095.831826935 
10804291.889264787 
8615612.001416327 
6541274.903570087 
5526364.223601814 
5096370.133463431 
3790706.8543327115 
1902044.8988980642 
668769.5144715458 
24104.778709910577 
246617.44732178422 
155497.87200495647 
-249172.86939376756 
-185474.85217397986 
-293923.4984923564 
13310600.47725705 
13309754.322526496 
13304385.709355943 
13279626.431339167 
13183272.04405268 
12872458.552628025 
12065996.536166448 
10455841.22229983 
8156328.065724552 
6120797.197370164 
5325806.132198829 
4921216.076564949 
3142953.7686702143 
1091101.9126001704 
684240.7485724536 
300427.13578929356 
-193924.13597925636 
79806.30465533375 
-138974.42631555162 
-160868.61878726515 
169551.71182265552 
13445134.431411527 
13444264.154951714 
13438738.940026924 
13413240.795019463 