<?xml version="1.0"?>
<VTKFile type="UnstructuredGrid" version="0.1" byte_order="LittleEndian" compressor="vtkZLibDataCompressor">
<UnstructuredGrid>
<Piece NumberOfPoints="441" NumberOfCells="400">
<PointData>
<DataArray type="Float64" Name="displacement" NumberOfComponents="3" format="ascii" >
0.0 2.0417178913716468e-09  0.
-1.2619814934363004e-15 2.0417169925158672e-09  0.
-4.8577685572672575e-15 2.0417125982095402e-09  0.
-1.6134416745107e-14 2.041697373572179e-09  0.
-4.8778500529465744e-14 2.041649856573397e-09  0.
-1.3528096660538228e-13 2.0415140061130913e-09  0.
-3.4591136696519584e-13 2.04115625315792e-09  0.
-8.191610900477598e-13 2.0402844952687284e-09  0.
-1.8039245174698356e-12 2.0383107532357924e-09  0.
-3.70766136521938e-12 2.0341431766797647e-09  0.
-7.1356193361836655e-12 2.0259089132370617e-09  0.
-1.289655881141901e-11 2.0106400142753184e-09  0.
-2.194536851190765e-11 1.983997043505341e-09  0.
-3.523901154572492e-11 1.9401471869992814e-09  0.
-5.3503271046615754e-11 1.871935045046404e-09  0.
-7.694292321008835e-11 1.7714622774235345e-09  0.
-1.0497077222687285e-10 1.6311163511029065e-09  0.
-1.3610847897878066e-10 1.445012095227573e-09  0.
-1.6864392948520593e-10 1.2119603224002928e-09  0.
-2.1173645360277553e-10 9.55109871523261e-10  0.
-4.2648347793129817e-10 9.747656989851356e-10  0.
0.0 5.6142815511341e-09  0.
-2.6985515161226814e-15 5.614279891244733e-09  0.
-1.0758438158717328e-14 5.614271469423813e-09  0.
-3.7050027383359824e-14 5.614240926106186e-09  0.
-1.158416156203802e-13 5.614141402944169e-09  0.
-3.3125746330843364e-13 5.613845578699249e-09  0.
-8.707430596638192e-13 5.613038938480331e-09  0.
-2.1137353244019177e-12 5.611011437359983e-09  0.
-4.7587091747852105e-12 5.606292976101235e-09  0.
-9.97413283027918e-12 5.596084873089557e-09  0.
-1.9530313417992292e-11 5.5754800245825905e-09  0.
-3.583724081244023e-11 5.5365499991110446e-09  0.
-6.17941715505028e-11 5.467502125929398e-09  0.
-1.0037124520417759e-10 5.352240167989112e-09  0.
-1.539060085956099e-10 5.1707379175853375e-09  0.
-2.2320685373685493e-10 4.900587180801529e-09  0.
-3.066966479092452e-10 4.519881508942658e-09  0.
-4.0019287162622406e-10 4.011526691583012e-09  0.
-5.015008403819603e-10 3.372736673155071e-09  0.
-6.649971372677347e-10 2.6889736002302846e-09  0.
-1.5609472791431976e-09 2.868613765713948e-09  0.
0.0 2.5472028740468262e-08  0.
-9.745683504346458e-15 2.547202330897995e-08  0.
-4.033380953079661e-14 2.5471994888456885e-08  0.
-1.442744569563998e-13 2.5471887854840568e-08  0.
-4.670838956448223e-13 2.5471526439950543e-08  0.
-1.3782033784366116e-12 2.5470416891661468e-08  0.
-3.7255241345537455e-12 2.5467302602890645e-08  0.
-9.270675382199417e-12 2.545927097228641e-08  0.
-2.1331903926715704e-11 2.5440150694808302e-08  0.
-4.557378347734946e-11 2.5397954243030917e-08  0.
-9.0735022375701e-11 2.5311292697220097e-08  0.
-1.6890935008147847e-10 2.514508218092561e-08  0.
-2.948812931046276e-10 2.484645299761017e-08  0.
-4.840728933342681e-10 2.4342412916028757e-08  0.
-7.489807610232391e-10 2.3541210534416416e-08  0.
-1.0945432723673193e-09 2.233916390159245e-08  0.
-1.5136469806198948e-09 2.06338475670269e-08  0.
-1.9859663063804953e-09 1.834460627587099e-08  0.
-2.502359765057662e-09 1.5462547419632042e-08  0.
-3.3429156013377224e-09 1.240726429764572e-08  0.
-7.770495613223971e-09 1.3466635560437618e-08  0.
0.0 1.0309153431162934e-07  0.
-3.177004324749196e-14 1.0309151771341091e-07  0.
-1.3613652186439584e-13 1.0309142827895095e-07  0.
-5.043137923578981e-13 1.0309107936553507e-07  0.
-1.6856738932046865e-12 1.0308986179686156e-07  0.
-5.1175284041782635e-12 1.0308601234328086e-07  0.
-1.4184858562465623e-11 1.0307492492385356e-07  0.
-3.6078364339895046e-11 1.0304568167565783e-07  0.
-8.460006307653679e-11 1.0297470743383691e-07  0.
-1.83690291213565e-10 1.0281547812222897e-07  0.
-3.7077748598763783e-10 1.0248389665515876e-07  0.
-6.982537273853079e-10 1.018405602411234e-07  0.
-1.2308150497336424e-09 1.0067362675622821e-07  0.
-2.036665458310407e-09 9.868866882917965e-08  0.
-3.1719673825277573e-09 9.551357211661502e-08  0.
-4.660537764395478e-09 9.072577117324075e-08  0.
-6.474277401313111e-09 8.390580241999432e-08  0.
-8.530619185751491e-09 7.47245669983825e-08  0.
-1.0818815937421778e-08 6.318225101732051e-08  0.
-1.466320540203656e-08 5.126566430269912e-08  0.
-3.287817474528417e-08 5.645470647797484e-08  0.
0.0 3.574323008944305e-07  0.
-9.466079141503734e-14 3.574322545688518e-07  0.
-4.190228508317945e-13 3.574319980472271e-07  0.
-1.6033727192023943e-12 3.5743096431367816e-07  0.
-5.518039879288898e-12 3.5742724800221554e-07  0.
-1.7185574974642626e-11 3.574151892812346e-07  0.
-4.869026292620226e-11 3.573796809613129e-07  0.
-1.261467347794008e-10 3.572842920149744e-07  0.
-3.003517962674253e-10 3.570493057191606e-07  0.
-6.602763197259368e-10 3.565158863142872e-07  0.
-1.3459343214595765e-09 3.5539508832574276e-07  0.
-2.554020031956196e-09 3.532062930463328e-07  0.
-4.5276903555447064e-09 3.492184530004588e-07  0.
-7.522984407947211e-09 3.4241672299147937e-07  0.
-1.17502307173899e-08 3.315219863815339e-07  0.
-1.729867558203456e-08 3.150871101490623e-07  0.
-2.4067179024891718e-08 2.916831188232337e-07  0.
-3.1774240482810084e-08 2.602190676612457e-07  0.
-4.053962116934876e-08 2.20950967648077e-07  0.
-5.578045017090751e-08 1.820958117718405e-07  0.
-1.1976627874555233e-07 2.041014559673714e-07  0.
0.0 1.04464582392006e-06  0.
-2.590687877195126e-13 1.0446457056125181e-06  0.
-1.1817661725768222e-12 1.0446450337380824e-06  0.
-4.65813563006677e-12 1.044642244967909e-06  0.
-1.6458602167995498e-11 1.044631948113655e-06  0.
-5.242019335433778e-11 1.0445977743968727e-06  0.
-1.512728079388667e-10 1.0444952995302034e-06  0.
-3.9764551526632124e-10 1.0442161700685617e-06  0.
-9.571736030943251e-10 1.0435217859579659e-06  0.
-2.1203859806211736e-09 1.0419359630233112e-06  0.
-4.343071329465333e-09 1.0385948339067662e-06  0.
-8.26055903786089e-09 1.0320712015204523e-06  0.
-1.464818427481253e-08 1.0202168647507303e-06  0.
-2.4306320099695396e-08 1.000090505860022e-06  0.
-3.787056560499555e-08 9.680460156707233e-07  0.
-5.5580733885878193e-08 9.200366033271427e-07  0.
-7.709342722947471e-08 8.521637886241245e-07  0.
-1.0163104277562692e-07 7.616853216356196e-07  0.
-1.3032296694360072e-07 6.507319325747111e-07  0.
-1.8217176160884303e-07 5.486498936515108e-07  0.
-3.711309356143287e-07 6.28443359384327e-07  0.
0.0 2.5282946874122297e-06  0.
-6.529264122230259e-13 2.5282944106798683e-06  0.
-3.0615552770455525e-12 2.528292802222479e-06  0.
-1.2397145209313403e-11 2.528285944667713e-06  0.
-4.484373710819949e-11 2.5282600169707796e-06  0.
-1.4560319265252427e-10 2.5281722949502777e-06  0.
-4.2643490882371763e-10 2.5279054643642113e-06  0.
-1.1326244190050568e-09 2.5271719115448806e-06  0.
-2.743188670600924e-09 2.525339202604733e-06  0.
-6.091007709816169e-09 2.521155053435107e-06  0.
-1.2462057105726943e-08 2.5123799072241473e-06  0.
-2.3606765626717354e-08 2.49538940750168e-06  0.
-4.158880870498064e-08 2.46487429263587e-06  0.
-6.843199582510303e-08 2.4138060074803367e-06  0.
-1.0559571080301058e-07 2.333818729259361e-06  0.
-1.5341517423425921e-07 2.216068904365038e-06  0.
-2.107817935628212e-07 2.0526019014844953e-06  0.
-2.7610581946084466e-07 1.8391198352567805e-06  0.
-3.5541139185263294e-07 1.5868523993129048e-06  0.
-5.047841337562217e-07 1.3847330235821716e-06  0.
-9.647543140429358e-07 1.627925389855212e-06  0.
0.0 4.980357667425965e-06  0.
-1.5175151724809669e-12 4.980357074901816e-06  0.
-7.29585734777294e-12 4.98035355743063e-06  0.
-3.02682292868354e-11 4.980338195107453e-06  0.
-1.1178263304739997e-10 4.9802788846206545e-06  0.
-3.688889377236286e-10 4.980074956036089e-06  0.
-1.0926137833898719e-09 4.97944807796092e-06  0.
-2.9200441634536582e-09 4.977716693440777e-06  0.
-7.081379525310376e-09 4.9733964733060795e-06  0.
-1.5671600212695655e-08 4.9636022222919545e-06  0.
-3.182454026445155e-08 4.943315990024942e-06  0.
-5.961386934152569e-08 4.904722740939894e-06  0.
-1.03529834028933e-07 4.836935241773353e-06  0.
-1.6751149017261187e-07 4.726446814417225e-06  0.
-2.5374710420238903e-07 4.558476312945589e-06  0.
-3.616744881562646e-07 4.319092184644179e-06  0.
-4.880519041076767e-07 3.998108481630593e-06  0.
-6.312272802509884e-07 3.5960174034710012e-06  0.
-8.14614040326182e-07 3.156572422194943e-06  0.
-1.1736992848282335e-06 2.90307330026809e-06  0.
-2.0760381791620444e-06 3.5119322016344442e-06  0.
0.0 7.934852122285203e-06  0.
-3.259581849946385e-12 7.934850959324994e-06  0.
-1.602831690867913e-11 7.93484392249049e-06  0.
-6.795106561492648e-11 7.934812521048238e-06  0.
-2.5553926317906265e-10 7.93468905059718e-06  0.
-8.546809322696756e-10 7.934258849970932e-06  0.
-2.551657264899144e-09 7.932926978910325e-06  0.
-6.834260434444544e-09 7.929247357825911e-06  0.
-1.651554837260606e-08 7.920127325551331e-06  0.
-3.6224367578604886e-08 7.899733146828605e-06  0.
-7.254012509936742e-08 7.858351124002642e-06  0.
-1.3338809267166295e-07 7.78173389558805e-06  0.
-2.26499347172104e-07 7.651595602222158e-06  0.
-3.5715344890363556e-07 7.447711187609248e-06  0.
-5.259949691404116e-07 7.151479230849241e-06  0.
-7.281032064924901e-07 6.750223825414701e-06  0.
-9.556096963812102e-07 6.242655112691985e-06  0.
-1.2119693595176353e-06 5.655712066760012e-06  0.
-1.5667085523681083e-06 5.120092197110106e-06  0.
-2.276631837595537e-06 5.084362693625744e-06  0.
-3.6744429227176105e-06 6.299039589088929e-06  0.
0.0 1.050600606112885e-05  0.
-6.501461939872931e-12 1.0506003954865592e-05  0.
-3.2620936090812686e-11 1.050599099026097e-05  0.
-1.409773020792187e-10 1.0505932020244372e-05  0.
-5.385870488144925e-10 1.0505696431212631e-05  0.
-1.8211199779309069e-09 1.0504866675585027e-05  0.
-5.464120769279075e-09 1.050228712854894e-05  0.
-1.4612946969833872e-08 1.0495185860885847e-05  0.
-3.50304299344439e-08 1.0477791280897049e-05  0.
-7.573794756663608e-08 1.0439668817690223e-05  0.
-1.486219277603559e-07 1.0364484539873686e-05  0.
-2.663766413665189e-07 1.023028583903535e-05  0.
-4.388046411827358e-07 1.0012287005538564e-05  0.
-6.686491656723852e-07 9.688197958354445e-06  0.
-9.488206204343512e-07 9.244914018919037e-06  0.
-1.2638551254574806e-06 8.684935912342668e-06  0.
-1.6000399007503313e-06 8.036232286126068e-06  0.
-1.982026939317939e-06 7.392065384285212e-06  0.
-2.5682710825612614e-06 7.052080711605459e-06  0.
-3.7130046677867292e-06 7.69232784090978e-06  0.
-5.420271272475549e-06 9.549547538287403e-06  0.
0.0 1.2551031714159628e-05  0.
-1.2111896593007568e-11 1.2551028168497824e-05  0.
-6.187749904811796e-11 1.2551006007505957e-05  0.
-2.7202023727638633e-10 1.2550903483823993e-05  0.
-1.053607477622007e-09 1.2550488167293285e-05  0.
-3.5942561187917985e-09 1.2549012476111938e-05  0.
-1.0812167825488457e-08 1.2544416441779068e-05  0.
-2.878269960406509e-08 1.2531848731961674e-05  0.
-6.817204990538684e-08 1.2501559303933377e-05  0.
-1.4457843036080812e-07 1.2436881154776016e-05  0.
-2.7642000757478667e-07 1.231381719007851e-05  0.
-4.798091568755856e-07 1.2103939605888127e-05  0.
-7.616078573644457e-07 1.1781177850946802e-05  0.
-1.1138742588571434e-06 1.1330899632386586e-05  0.
-1.5135356144709014e-06 1.0757724701256472e-05  0.
-1.930839060382072e-06 1.0091624632776928e-05  0.
-2.3560104253733137e-06 9.406368905363018e-06  0.
-2.8680895080512334e-06 8.90417972285366e-06  0.
-3.7401445807277236e-06 9.101849116742555e-06  0.
-5.260473584990533e-06 1.0645755364821437e-05  0.
-6.991136387660905e-06 1.2719678969426699e-05  0.
0.0 1.4864766769447507e-05  0.
-2.1140627496609136e-11 1.4864761225133352e-05  0.
-1.0975547647964032e-10 1.4864726094727326e-05  0.
-4.898709455554809e-10 1.486456110090396e-05  0.
-1.920386854196058e-09 1.4863884514874743e-05  0.
-6.5988506660873705e-09 1.4861462958078409e-05  0.
-1.986617997104402e-08 1.4853919940388472e-05  0.
-5.251669742788875e-08 1.4833480871217071e-05  0.
-1.2249461807536354e-07 1.4785191696015122e-05  0.
-2.5376944100440834e-07 1.4685258183555475e-05  0.
-4.7044604606574403e-07 1.4503059161787631e-05  0.
-7.867915392346201e-07 1.4208540218081696e-05  0.
-1.1976213105560115e-06 1.3783361671957694e-05  0.
-1.6750805858630993e-06 1.323065792684466e-05  0.
-2.177583781933685e-06 1.2578224822264648e-05  0.
-2.6719345548424983e-06 1.1881754202341063e-05  0.
-3.1849188966476487e-06 1.126559500372205e-05  0.
-3.8932961349487085e-06 1.106657560617726e-05  0.
-5.128473633895544e-06 1.1925617577760341e-05  0.
-6.8566710213128835e-06 1.394128730147655e-05  0.
-8.478747377469173e-06 1.557150234350498e-05  0.
0.0 1.7492929876521958e-05  0.
-3.459850431620848e-11 1.7492921858876508e-05  0.
-1.8218980934873946e-10 1.749287043611442e-05  0.
-8.240724911841309e-10 1.749262568545522e-05  0.
-3.2644396510634906e-09 1.7491611279781332e-05  0.
-1.1283346155304565e-08 1.7487958882443554e-05  0.
-3.39488236380853e-08 1.7476594529131607e-05  0.
-8.895959476931907e-08 1.7446133694781552e-05  0.
-2.0381295633781701e-07 1.7375797726144475e-05  0.
-4.1105711203683866e-07 1.7235398536272062e-05  0.
-7.36115965555431e-07 1.6991644557295548e-05  0.
-1.1821035688973445e-06 1.662068702717129e-05  0.
-1.7221325846623806e-06 1.612047542575434e-05  0.
-2.3068852344085925e-06 1.5513545237279458e-05  0.
-2.8890694338036276e-06 1.4841080542776356e-05  0.
-3.4662231181203894e-06 1.4172079379336411e-05  0.
-4.14482490283739e-06 1.3698435493069246e-05  0.
-5.208100434158852e-06 1.3900376828174119e-05  0.
-6.856649337300591e-06 1.5274697993177687e-05  0.
-8.620617084032602e-06 1.7028068335387923e-05  0.
-1.0092271778138202e-05 1.8096780817526678e-05  0.
0.0 1.9763822640019002e-05  0.
-5.320422359958058e-11 1.9763811903821335e-05  0.
-2.8363607079818156e-10 1.976374231748291e-05  0.
-1.2978052309984487e-09 1.9763407293562186e-05  0.
-5.187134806563003e-09 1.9762006065250764e-05  0.
-1.801252704650006e-08 1.9756936929781773e-05  0.
-5.410539162768811e-08 1.9741197640327572e-05  0.
-1.4036022094893085e-07 1.969951625090112e-05  0.
-3.15255945145929e-07 1.960566401591639e-05  0.
-6.173229552462848e-07 1.942570928471701e-05  0.
-1.0649989782849587e-06 1.91298589471732e-05  0.
-1.6398569219871282e-06 1.8707842455618147e-05  0.
-2.2902889350639363e-06 1.8175497997329366e-05  0.
-2.9606052290824077e-06 1.7563242670833004e-05  0.
-3.62937465592027e-06 1.690555535767299e-05  0.
-4.363003277487222e-06 1.6291680505926837e-05  0.
-5.362726476815129e-06 1.6028297344694622e-05  0.
-6.900951095475727e-06 1.6693049379691638e-05  0.
-8.825142332705649e-06 1.829307724261748e-05  0.
-1.0450302964932786e-05 1.9502486407673695e-05  0.
-1.176654050092493e-05 2.0624397535417397e-05  0.
0.0 2.2090438690910174e-05  0.
-7.705237460287137e-11 2.2090425403951327e-05  0.
-4.151321285663789e-10 2.2090338506855776e-05  0.
-1.918301163939797e-09 2.2089916027147454e-05  0.
-7.72534157813218e-09 2.208813539955303e-05  0.
-2.6925342829851127e-08 2.208166945482598e-05  0.
-8.069360542388126e-08 2.2061646189929122e-05  0.
-2.0713173995885097e-07 2.2009276154725662e-05  0.
-4.5565510069935985e-07 2.189441235958574e-05  0.
-8.649133010653397e-07 2.1683468738342776e-05  0.
-1.4356053152078136e-06 2.1356521324736405e-05  0.
-2.1221891448436522e-06 2.0919776598049435e-05  0.
-2.8591927458951325e-06 2.039792628511173e-05  0.
-3.6149701475592352e-06 1.9810649293314713e-05  0.
-4.428864956651233e-06 1.9182091671244353e-05  0.
-5.43651393966131e-06 1.8669902776190152e-05  0.
-6.876236522302539e-06 1.8730822040341076e-05  0.
-8.779201011848117e-06 1.981200687069599e-05  0.
-1.0636779510691384e-05 2.120444759982926e-05  0.
-1.2000299190459634e-05 2.1970396858892328e-05  0.
-1.3371581506334421e-05 2.34506473527727e-05  0.
0.0 2.4595744055685504e-05  0.
-1.0517198022972763e-10 2.4595729001064326e-05  0.
-5.716653734794936e-10 2.4595629789984938e-05  0.
-2.6635133594502104e-09 2.4595143431322057e-05  0.
-1.0793995603381108e-08 2.459308024776373e-05  0.
-3.772880782697668e-08 2.4585565277316193e-05  0.
-1.127860220695725e-07 2.4562356350990972e-05  0.
-2.865163844942806e-07 2.4502376170440754e-05  0.
-6.174523019870055e-07 2.4374179208454565e-05  0.
-1.1360064153273404e-06 2.414891910271134e-05  0.
-1.8151489469880092e-06 2.382053796790261e-05  0.
-2.5875173082182557e-06 2.340798897335578e-05  0.
-3.4005323586129225e-06 2.2928503779846813e-05  0.
-4.27450229102233e-06 2.2380984471914097e-05  0.
-5.316149060103457e-06 2.1808996162568153e-05  0.
-6.6673359030402984e-06 2.1490236240679236e-05  0.
-8.449168011088276e-06 2.1960906672980912e-05  0.
-1.0377710593550624e-05 2.318145926395542e-05  0.
-1.1885749492509207e-05 2.3999397769249635e-05  0.
-1.3171334700784198e-05 2.4524985658712968e-05  0.
-1.4547965737711026e-05 2.5797681341996197e-05  0.
0.0 2.687638999919711e-05  0.
-1.3546391026541965e-10 2.6876374523860097e-05  0.
-7.416159760023931e-10 2.6876271915561802e-05  0.
-3.4784892977406106e-09 2.6875765566538375e-05  0.
-1.4167978474840573e-08 2.6873606540720805e-05  0.
-4.962960472013187e-08 2.6865724606757498e-05  0.
-1.4799054798734463e-07 2.6841447698510726e-05  0.
-3.7235811745625454e-07 2.6779391933215333e-05  0.
-7.871626007807272e-07 2.6649926837970496e-05  0.
-1.4058584267156807e-06 2.643200639895931e-05  0.
-2.1678315905219365e-06 2.613310535372459e-05  0.
-3.001295109626614e-06 2.5776524357482973e-05  0.
-3.9016214582678875e-06 2.5358582558729528e-05  0.
-4.940780587954299e-06 2.4865645501973227e-05  0.
-6.2441119318191455e-06 2.4407900923150554e-05  0.
-7.867551749284161e-06 2.4361293993939456e-05  0.
-9.677953525706324e-06 2.509607985825119e-05  0.
-1.133210460115361e-05 2.602916524171571e-05  0.
-1.2592929399270053e-05 2.634169736163245e-05  0.
-1.4070677171528972e-05 2.6985217240808184e-05  0.
-1.5153592970004357e-05 2.760642586413956e-05  0.
0.0 2.931778469391226e-05  0.
-1.6480566833136362e-10 2.9317770600763837e-05  0.
-9.072663366426783e-10 2.9317676710617576e-05  0.
-4.277456492244762e-09 2.9317210990345493e-05  0.
-1.7489892874994764e-08 2.9315217267833183e-05  0.
-6.136382263769095e-08 2.93079262883069e-05  0.
-1.825773408895599e-07 2.9285521047784073e-05  0.
-4.556495186471799e-07 2.9228775377845835e-05  0.
-9.47376120816478e-07 2.9112833888929213e-05  0.
-1.6482627787222513e-06 2.892508653862737e-05  0.
-2.4643806625852185e-06 2.8681698408668333e-05  0.
-3.3421928319119376e-06 2.840225711755751e-05  0.
-4.3529522433250745e-06 2.806144126517626e-05  0.
-5.581434103158265e-06 2.7650697616523493e-05  0.
-7.074638210742456e-06 2.735877699936899e-05  0.
-8.781142628692883e-06 2.7545456812401818e-05  0.
-1.0397138766936668e-05 2.822201043411584e-05  0.
-1.182769337865896e-05 2.8678675003942036e-05  0.
-1.3220501393417862e-05 2.883680332220582e-05  0.
-1.4624672640602894e-05 2.9546088517012782e-05  0.
-1.5809277033541314e-05 2.9845447973399725e-05  0.
0.0 3.1678232799969396e-05  0.
-1.894848852762469e-10 3.1678222016659516e-05  0.
-1.0472420395266885e-09 3.1678149933419207e-05  0.
-4.9554944340740774e-09 3.1677791070089414e-05  0.
-2.0317914646785007e-08 3.1676250439595155e-05  0.
-7.136326670817373e-08 3.167060963960482e-05  0.
-2.1196354273692834e-07 3.165330548031781e-05  0.
-5.257060365554227e-07 3.1609782297438636e-05  0.
-1.0790908689556635e-06 3.152227326524937e-05  0.
-1.8390998495764784e-06 3.138488452975875e-05  0.
-2.6846378608139036e-06 3.121485235267426e-05  0.
-3.5963012360061516e-06 3.102415425955031e-05  0.
-4.727338618273307e-06 3.0779125650762e-05  0.
-6.121331149576996e-06 3.048497674371261e-05  0.
-7.668305996457041e-06 3.034936863166717e-05  0.
-9.312071406685538e-06 3.0604348137218334e-05  0.
-1.0819747658807758e-05 3.101942744664502e-05  0.
-1.2243345082791431e-05 3.117950459314387e-05  0.
-1.3772042842177993e-05 3.140009001273166e-05  0.
-1.4892778145373826e-05 3.178680216790226e-05  0.
-1.6401354217194317e-05 3.203764426220772e-05  0.
0.0 3.4066987607622136e-05  0.
-2.0599753747990603e-10 3.406698174884914e-05  0.
-1.1411883405394327e-09 3.40669425062978e-05  0.
-5.411871894045882e-09 3.406674671795882e-05  0.
-2.2225426188696454e-08 3.406590479637439e-05  0.
-7.811231584637121e-08 3.406282021083975e-05  0.
-2.3175709429600707e-07 3.4053368588360246e-05  0.
-5.725636578810493e-07 3.402970029350568e-05  0.
-1.1657647737918224e-06 3.3982597680433134e-05  0.
-1.9606927078941843e-06 3.391012909716545e-05  0.
-2.818938038353013e-06 3.382318261027798e-05  0.
-3.7538523150798766e-06 3.372682286496811e-05  0.
-4.980585310219427e-06 3.359775941977314e-05  0.
-6.479214338232333e-06 3.344513934762681e-05  0.
-7.989394821716283e-06 3.340524599198285e-05  0.
-9.563025249372215e-06 3.357199692955349e-05  0.
-1.1135101240316168e-05 3.373475324681239e-05  0.
-1.2530099546886424e-05 3.37885199930993e-05  0.
-1.395899436636365e-05 3.3997376140188054e-05  0.
-1.5203625605556132e-05 3.41099164678987e-05  0.
-1.647254469319568e-05 3.4198103661459814e-05  0.
0.0 3.6450000000000046e-05  0.
-2.1181034326636135e-10 3.6450000000000046e-05  0.
-1.17430953543991e-09 3.6450000000000046e-05  0.
-5.572994320811475e-09 3.6450000000000046e-05  0.
-2.2899546039688037e-08 3.6450000000000046e-05  0.
-8.049808925151136e-08 3.6450000000000046e-05  0.
-2.387463338411334e-07 3.6450000000000046e-05  0.
-5.890486276002191e-07 3.6450000000000046e-05  0.
-1.1959964773088963e-06 3.6450000000000046e-05  0.
-2.0023732706325497e-06 3.6450000000000046e-05  0.
-2.86389260037171e-06 3.6450000000000046e-05  0.
-3.8073423793459647e-06 3.6450000000000046e-05  0.
-5.070691201197781e-06 3.6450000000000046e-05  0.
-6.603756181987164e-06 3.6450000000000046e-05  0.
-8.085488702786993e-06 3.6450000000000046e-05  0.
-9.638207167399827e-06 3.6450000000000046e-05  0.
-1.1268091812655783e-05 3.6450000000000046e-05  0.
-1.260087924822442e-05 3.6450000000000046e-05  0.
-1.3958022677111243e-05 3.6450000000000046e-05  0.
-1.54112369410477e-05 3.6450000000000046e-05  0.
-1.6402148192674423e-05 3.6450000000000046e-05  0.
</DataArray>
<DataArray type="Float64" Name="sigma_xx" NumberOfComponents="1" format="ascii" >
20006.405242956043 
20006.378531500774 
20006.257362459306 
20005.87659437558 
20004.798254591442 
20001.98849992917 
19995.21234810064 
19980.01814783045 
19948.2104419224 
19885.813829001447 
19770.72670406032 
19570.532709162195 
19241.207337161715 
18727.615134833668 
17966.611145853178 
16893.128827277775 
15448.491197733721 
13583.596591998366 
11185.609016661765 
7106.374404031167 
4381.993679836159 
65605.96124044468 
65605.89718008766 
65605.59928620033 
65604.6326413806 
65601.80843971361 
65594.23478684765 
65575.48309742697 
65532.4175787064 
65440.284689413624 
65255.96316271918 
64909.91289485601 
64298.28674823221 
63277.66944744237 
61665.57660891856 
59249.7351778992 
55807.83551495937 
51135.75846170114 
45062.77389721423 
37246.663913367825 
24814.8018169747 
16793.047815594204 
272954.12004688644 
272953.89733731345 
272952.8376522071 
272949.3006107197 
272938.6970912295 
272909.6267689717 
272836.3059857602 
272665.33248167235 
272295.04906579875 
271547.1156460479 
270132.67955649504 
267619.5271807096 
263410.7207239055 
256747.78804643243 
246750.5449779499 
232499.56387225425 
213150.20713099086 
187973.0548495744 
155398.8849737203 
103639.25807613524 
70322.95537666153 
929686.2673316305 
929685.5644995546 
929682.153719968 
929670.4991846979 
929634.8407288154 
929535.4682419845 
929281.7037341886 
928684.7764189113 
927385.0332506187 
924753.4712532781 
919778.1439433919 
910959.9301991398 
896254.8886290553 
873105.4661285817 
838594.5414627335 
789730.2770070306 
723799.134028069 
638314.8059231206 
526945.4028834939 
347730.5024601944 
231943.57054068794 
2637854.0845589316 
2637852.0507997097 
2637842.000345152 
2637806.933808542 
2637697.777505615 
2637389.7145144534 
2636596.6684491057 
2634724.307536195 
2630648.996220521 
2622431.5106899035 
2607010.104153142 
2579957.573632082 
2535413.802365779 
2466297.2942276313 
2364848.006493097 
2223452.0999273746 
2035437.3168059902 
1793977.510500402 
1477182.7533539473 
960949.0103778867 
626467.0760847299 
6085896.801853461 
6085891.3850109475 
6085864.170072977 
6085767.462030828 
6085462.164162437 
6084592.949417181 
6082347.703140421 
6077056.583561955 
6065619.363831496 
6042825.422620086 
6000734.936984709 
5928380.072948007 
5812052.276254247 
5636327.634941356 
5385739.066676341 
5046675.671816712 
4608216.3444628855 
4055643.1793701407 
3324901.6150775678 
2118983.323145206 
1336515.2865452138 
11042983.195814135 
11042969.895414194 
11042902.073353665 
11042657.241396336 
11041875.843761455 
11039640.209700806 
11033873.544376899 
11020389.008398939 
10991648.192869615 
10935519.039098423 
10834574.166890545 
10666577.46284277 
10406595.940292895 
10030592.870676592 
9519581.404607141 
8862532.840239901 
8053806.514888475 
7067746.973342287 
5747276.407431188 
3545725.5454677464 
2121450.8003980992 
15179618.12739443 
15179587.960155101 
15179432.085944047 
15178861.824231673 
15177027.175601425 
15171771.85350004 
15158299.362988465 
15127227.081656178 
15062414.776372015 
14939529.979091575 
14726739.578767302 
14388692.642981468 
13893857.067945112 
13223413.746690523 
12378282.303255368 
11379247.030585002 
10249528.020715054 
8942458.474227298 
7139876.115797756 
4146746.0112083303 
2244542.1064868607 
15514727.208627895 
15514663.728080112 
15514331.847077295 
15513103.827942463 
15509130.988350615 
15497773.49732653 
15468960.916299999 
15403793.220838245 
15271755.20002703 
15031026.498244269 
14634538.520583138 
14042682.00358332 
13239892.338161487 
12248755.577574886 
11133196.21059774 
9982177.267618394 
8853421.916286143 
7623882.155565078 
5773889.271405733 
2895761.4152508993 
1194276.7578421351 
12955446.02798387 
12955321.39945695 
12954662.920556968 
12952202.550223384 
12944213.107629297 
12921475.18761085 
12864601.544095948 
12739112.061522802 
12493907.242289266 
12068177.240873769 
11409843.995464697 
10502561.631294059 
9390125.316262977 
8183416.288577038 
7037851.635592617 
6093063.641756443 
5350346.765484013 
4464390.117372627 
2792382.957809084 
779849.846593461 
-112177.06779084541 
12231089.697054971 
12230860.575904712 
12229638.487706121 
12225033.618090471 
12210046.252283974 
12167667.365052983 
12063487.349075578 
11840364.055710755 
11422991.987833977 
10740068.440920994 
9763116.223700602 
8546306.714079455 
7241249.652123565 
6063921.981858261 
5213898.837846493 
4746857.234944629 
4398370.813521919 
3467690.2051525963 
1519301.099251291 
-22233.169134272728 
-342217.0585808377 
13871406.89581446 
13871011.89127906 
13868887.277295567 
13860824.229102211 
13834554.687523209 
13760875.326915594 
13583368.67435687 
13216196.763996925 
12563892.035122942 
11569939.680153474 
10278076.567909516 
8864455.849801887 
7601000.160615284 
6742125.029103071 
6373520.562051054 
6263472.026158686 
5743790.239579849 
4003934.313972448 
1463112.5299352226 
3184.171037615044 
-179773.80155153852 
13750755.67138625 
13750115.88894562 
13746649.304130161 
13733413.931824412 
13690290.355394945 
13570457.123637782 
13288147.23223116 
12726709.192167263 
11787195.039555352 
10471731.551231775 
8951697.085794535 
7544554.836017513 
6570428.198632771 
6156955.950392967 
6082531.764224056 
5749657.149622314 
4329441.607405538 
1676523.7592305522 
-472424.4420824668 
-699710.5650453353 
-337850.32590861386 
12902046.584468286 
12901070.915107744 
12895750.412111083 
12875333.39398366 
12808848.21662068 
12625901.41053781 
12204978.70359413 
11403086.86416926 
10149476.310468648 
8560658.484809143 
6970002.874254261 
5783578.714737709 
5204415.458464856 
5047031.574433178 
4752568.124313519 
3584546.108429224 
1192311.5516760962 
-1360503.4797427966 
-1837968.1326464277 
-496328.0097072995 
265938.3313332852 
13561292.590860736 
13559889.932292135 
13552198.95540322 
13522560.800982036 
13426143.046153892 
13163433.677331544 
12573331.861572713 
11499154.105121866 
9943079.057497196 
8189474.850266738 
6715536.268959474 
5875569.845384016 
5568034.245857934 
5237945.830875095 
4258017.028120892 
2239432.933920316 
-231891.02127793455 
-1398205.4213858226 
-474539.4637531263 
334904.8489169786 
227210.25948055089 
13431699.270365922 
13429796.01440374 
13419312.258884877 
13378773.072021775 
13247050.277250832 
12891502.291785296 
12111239.201277116 
10755180.737567168 
8947681.844183479 
7174318.361035762 
5968176.717617454 
5431728.39574896 
5081410.412331363 
4193019.448508861 
2506154.9328069417 
370921.72242975445 
-1145040.9624953521 
-757004.9294160558 
119258.24109804118 
-213630.19977202662 
-632975.2876489586 
13251561.69696638 
13249121.660364872 
13235631.04428226 
13183322.521785097 
13013564.469813775 
12559197.281629402 
11583101.617772633 
9960747.635196276 
7979012.548380651 
6325808.129312357 
5449286.966649516 
5009168.33919086 
4274712.127965448 
2795370.1123242327 
888628.8432156751 
-487955.8554315646 
-846403.3653198862 
-175721.96153195272 
-191257.34532777476 
-177866.93192468002 
458266.34999882383 
13475754.531552143 
13472796.752265528 
13456396.553857798 
13392675.0218398 
13186105.094494969 
12637090.869097449 
11478910.727088178 
9629333.87643545 
7555329.939556093 
6116792.043057878 
5536946.259853583 
4928092.664901545 
3626711.2227996876 
1942529.6807408677 
428076.61718504224 
-68293.19920968357 
111096.11731811916 
-5743.968997409567 
-169739.31142348005 
-58921.2421229966 
77284.02300472884 
13327408.353376076 
13324016.173026143 
13305168.877468206 
13231833.3650721 
12994302.983340409 
12366342.467851117 
11059925.754677007 
9039179.361563548 
6936161.166801533 
5733260.53262757 
5358517.99339315 
4404100.958641283 
2576144.6628620457 
1194683.6505111246 
352970.63920950494 
3811.991708148038 
142460.72101493715 
-331080.5934153693 
52204.39479520032 
-370638.43425126816 
-1692103.7938312637 
13390726.487653084 
13387044.22329224 
13366560.182951055 
13286787.633920394 
13028550.255122274 
12348089.919941615 
10944778.20835184 
8818645.931180418 
6717957.206056857 
5694667.624858543 
5426796.423312155 