<?xml version="1.0"?>
<VTKFile type="UnstructuredGrid" version="0.1" byte_order="LittleEndian" compressor="vtkZLibDataCompressor">
<UnstructuredGrid>
<Piece NumberOfPoints="441" NumberOfCells="400">
<PointData>
<DataArray type="Float64" Name="displacement" NumberOfComponents="3" format="ascii" >
0.0 5.680691309703739e-11  0.
-1.5469291401969964e-17 5.6806901493292134e-11  0.
-6.614642362704223e-17 5.68068394425965e-11  0.
-2.429782062483594e-16 5.6806601320558244e-11  0.
-8.013714844162366e-16 5.6805787428864254e-11  0.
-2.3942998663614476e-15 5.680327173247289e-11  0.
-6.525718286197347e-15 5.679618875862124e-11  0.
-1.6325797449136323e-14 5.6777908441894777e-11  0.
-3.769411448578193e-14 5.673441818529866e-11  0.
-8.070729178341484e-14 5.6638571957568136e-11  0.
-1.6091601557827321e-13 5.6442052672534457e-11  0.
-2.9985694510334937e-13 5.606576986917604e-11  0.
-5.238714468465406e-13 5.539073881992851e-11  0.
-8.604404440009625e-13 5.425293085082433e-11  0.
-1.331761851125636e-12 5.244650592413895e-11  0.
-1.946371606678441e-12 4.973943367121862e-11  0.
-2.690832110167736e-12 4.590328086269005e-11  0.
-3.525660518360605e-12 4.075556656128745e-11  0.
-4.403159096568193e-12 3.423043979962451e-11  0.
-5.590185466606339e-12 2.6816330068558053e-11  0.
-1.242913347268394e-11 2.716316387418365e-11  0.
0.0 2.074942107971531e-10  0.
-3.734634644174531e-17 2.0749418656747033e-10  0.
-1.6872259507289426e-16 2.0749404983407579e-10  0.
-6.548590485856612e-16 2.0749348938067642e-10  0.
-2.2723637874777776e-15 2.074914527416671e-10  0.
-7.108751538056463e-15 2.0748480142043467e-10  0.
-2.0190772547033992e-14 2.0746513299037527e-10  0.
-5.240172170659863e-14 2.074121157170762e-10  0.
-1.249962196432201e-13 2.0728104626135366e-10  0.
-2.7544279178961293e-13 2.0698225299796146e-10  0.
-5.632690820715394e-13 2.063511531976266e-10  0.
-1.0731569746217524e-12 2.0511094256561123e-10  0.
-1.911495803811766e-12 2.0283507421365805e-10  0.
-3.192609433545452e-12 1.9892278764788607e-10  0.
-5.013132879984421e-12 1.926053333697654e-10  0.
-7.417083445894456e-12 1.8299999547255938e-10  0.
-1.0360035912877976e-11 1.6922104527017119e-10  0.
-1.3690144249987556e-11 1.5054659763008227e-10  0.
-1.7255553091888782e-11 1.2671873350496092e-10  0.
-2.263468523389151e-11 1.0014668551900232e-10  0.
-5.7360558557365155e-11 1.0510551221269322e-10  0.
0.0 1.2939994555138345e-09  0.
-1.5031615699266553e-16 1.2939993663408296e-09  0.
-7.191489173568958e-16 1.2939988374075342e-09  0.
-2.9566085490740698e-15 1.2939965368222014e-09  0.
-1.0820823680733828e-14 1.2939876927608688e-09  0.
-3.552769446083379e-14 1.2939572818422406e-09  0.
-1.0537583219822238e-13 1.2938630778493598e-09  0.
-2.8423802546873285e-13 1.2935983778244153e-09  0.
-7.015269415248879e-13 1.2929194180025975e-09  0.
-1.5930262597518968e-12 1.2913204210547885e-09  0.
-3.344536952411659e-12 1.2878451098086204e-09  0.
-6.520113764157018e-12 1.280842582945496e-09  0.
-1.184722633036997e-11 1.2677096694016222e-09  0.
-2.013041340968434e-11 1.2447043519619897e-09  0.
-3.2077843996905766e-11 1.2069492270149293e-09  0.
-4.805620881692832e-11 1.1487459494399122e-09  0.
-6.782970078794686e-11 1.0642743225591065e-09  0.
-9.041282906892044e-11 9.486893734292843e-10  0.
-1.1481102462417259e-10 8.002318663950503e-10  0.
-1.5178788096509488e-10 6.348326125780676e-10  0.
-3.8145655368921905e-10 6.737878916115986e-10  0.
0.0 7.1786730863348614e-09  0.
-5.382938541439246e-16 7.178672787512249e-09  0.
-2.7179054797043338e-15 7.1786709296325025e-09  0.
-1.180354629920563e-14 7.178662384115809e-09  0.
-4.5476942159508174e-14 7.1786277235138825e-09  0.
-1.5649809256732532e-13 7.178502502588401e-09  0.
-4.842623063013139e-13 7.1780968334363634e-09  0.
-1.3565174147648499e-12 7.1769103222344675e-09  0.
-3.461793780393319e-12 7.173756619715447e-09  0.
-8.095305535725804e-12 7.1660927967906195e-09  0.
-1.743771193080566e-11 7.148972056698355e-09  0.
-3.476045293735248e-11 7.113639861378032e-09  0.
-6.438742715974901e-11 7.045989963705939e-09  0.
-1.1122447697640744e-10 6.925357052226541e-09  0.
-1.797427187489701e-10 6.72434696227759e-09  0.
-2.7248545467117707e-10 6.410449923258063e-09  0.
-3.884388998767923e-10 5.949932887548379e-09  0.
-5.221191881121137e-10 5.314238566432222e-09  0.
-6.686185050310479e-10 4.49337214761053e-09  0.
-8.963852681437198e-10 3.587890961443802e-09  0.
-2.194682878762239e-09 3.8469558026698375e-09  0.
0.0 3.448460754416949e-08  0.
-1.737483670891734e-15 3.448460664372871e-08  0.
-9.22430123748155e-15 3.4484600795479054e-08  0.
-4.217452204473554e-14 3.4484572461122324e-08  0.
-1.705891947922487e-13 3.448445162795627e-08  0.
-6.138643459119321e-13 3.44839943309682e-08  0.
-1.977645485279031e-12 3.448244911837446e-08  0.
-5.741983598706221e-12 3.4477756380019824e-08  0.
-1.5123527862878053e-11 3.446486178462647e-08  0.
-3.6354631353468616e-11 3.443260180232139e-08  0.
-8.020388292482043e-11 3.435869075527871e-08  0.
-1.6319893580880655e-10 3.420280504249305e-08  0.
-3.0764760329926517e-10 3.3898730533028064e-08  0.
-5.393951615998855e-10 3.3347886477704346e-08  0.
-8.826409057848232e-10 3.241775292885493e-08  0.
-1.3520860456236862e-09 3.094906482483329e-08  0.
-1.9442447297019975e-09 2.877450842087892e-08  0.
-2.6328870369489113e-09 2.5750955357946756e-08  0.
-3.3999487667509567e-09 2.1834189963440986e-08  0.
-4.62710643544107e-09 1.7584597858109983e-08  0.
-1.097628560764388e-08 1.9090368717851442e-08  0.
0.0 1.4160326083489144e-07  0.
-5.0919107925738995e-15 1.4160325838009366e-07  0.
-2.830852093185937e-14 1.4160324178426124e-07  0.
-1.357221511066819e-13 1.4160315746004412e-07  0.
-5.743806830373395e-13 1.416027808375451e-07  0.
-2.154727038430676e-12 1.416012930303257e-07  0.
-7.2055277683706064e-12 1.415960679483933e-07  0.
-2.1619803851787993e-11 1.415796501982841e-07  0.
-5.859080295149937e-11 1.4153318635548754e-07  0.
-1.4433715648717069e-10 1.4141396275846752e-07  0.
-3.2512206688777273e-10 1.4113489503349985e-07  0.
-6.732278006383973e-10 1.405356682998498e-07  0.
-1.2876629463294805e-09 1.3934937630853712e-07  0.
-2.284736689554427e-09 1.3717428547585367e-07  0.
-3.775043654077296e-09 1.3346573118691793e-07  0.
-5.828330417108672e-09 1.2756454788713116e-07  0.
-8.434502270539227e-09 1.1877408796963055e-07  0.
-1.1487041034484722e-08 1.0649910662631501e-07  0.
-1.4951101571680726e-08 9.060936682950335e-08  0.
-2.067788191209658e-08 7.383966481908135e-08  0.
-4.719243822994114e-08 8.141185879501253e-08  0.
0.0 4.896035576852766e-07  0.
-1.3629620986516838e-14 4.896035515960031e-07  0.
-7.901882957497846e-14 4.896035089004365e-07  0.
-3.9562613886644683e-13 4.896032823882317e-07  0.
-1.7453278136398756e-12 4.896022271597882e-07  0.
-6.8024061943297e-12 4.895978923681074e-07  0.
-2.353102739493327e-11 4.895821302768881e-07  0.
-7.269230889921328e-11 4.895311060629902e-07  0.
-2.0189713769688658e-10 4.893830671522004e-07  0.
-5.075334321397301e-10 4.889954727078719e-07  0.
-1.1620732006405973e-09 4.880736636923874e-07  0.
-2.437478874632049e-09 4.860701488478209e-07  0.
-4.708362788742693e-09 4.820685127570468e-07  0.
-8.415383730886263e-09 4.7468697224224544e-07  0.
-1.397718861160678e-08 4.6205419848403107e-07  0.
-2.1656917673073006e-08 4.419133242535631e-07  0.
-3.142116003018884e-08 4.118933188526198e-07  0.
-4.29079064793402e-08 3.7001779058068053e-07  0.
-5.623346358877354e-08 3.1623770471323077e-07  0.
-7.910636877379817e-08 2.621086223022615e-07  0.
-1.7215864271718346e-07 2.946415016635788e-07  0.
0.0 1.3998958843926161e-06  0.
-3.3473030975808336e-14 1.3998958706006274e-06  0.
-2.0154681376283316e-13 1.3998957706590285e-06  0.
-1.049443030669922e-12 1.399895219415372e-06  0.
-4.807888167308383e-12 1.3998925517037979e-06  0.
-1.9400466007949758e-11 1.3998811990423436e-06  0.
-6.91758809859135e-11 1.3998386215150123e-06  0.
-2.1915777381305314e-10 1.3996972267048822e-06  0.
-6.210310360867645e-10 1.3992787880942646e-06  0.
-1.5850298545355004e-09 1.3981675121713754e-06  0.
-3.66834888907024e-09 1.3955003941440273e-06  0.
-7.747298045633408e-09 1.389677055188283e-06  0.
-1.5017619636072864e-08 1.3780391624344467e-06  0.
-2.6861624371858183e-08 1.3566297170308335e-06  0.
-4.45529486285652e-08 1.3201847468957638e-06  0.
-6.883774984281385e-08 1.2624974084897385e-06  0.
-9.953910172944471e-08 1.1772404909362817e-06  0.
-1.3565771504609562e-07 1.0595522088078097e-06  0.
-1.7872212604013714e-07 9.11604694376508e-07  0.
-2.558346266647371e-07 7.75029957058921e-07  0.
-5.249296232450482e-07 8.925687043234382e-07  0.
0.0 3.2435434990033723e-06  0.
-7.563878652241478e-14 3.2435434704610344e-06  0.
-4.711351577191335e-13 3.243543257427963e-06  0.
-2.5410111344765617e-12 3.2435420407988393e-06  0.
-1.2044078401945215e-11 3.243535948412658e-06  0.
-5.014055147252429e-11 3.2435091883865026e-06  0.
-1.8364952368342096e-10 3.2434060476238124e-06  0.
-5.943831490881717e-10 3.2430561012081285e-06  0.
-1.710618879625795e-09 3.242004998315735e-06  0.
-4.408942744290037e-09 3.2391906576564943e-06  0.
-1.0249831700406682e-08 3.2324245878904354e-06  0.
-2.1642615214977902e-08 3.217713755190384e-06  0.
-4.177371310442857e-08 3.188593211441982e-06  0.
-7.415462401538979e-08 3.1357728083926342e-06  0.
-1.217532906738666e-07 3.04745108240232e-06  0.
-1.8593509510307888e-07 2.9105142567358437e-06  0.
-2.657046016092174e-07 2.7126994466127087e-06  0.
-3.589669974660948e-07 2.4468910254855055e-06  0.
-4.742958812068078e-07 2.1284732294874647e-06  0.
-6.902820140574335e-07 1.8826668172106599e-06  0.
-1.3163760264697493e-06 2.2323754609447923e-06  0.
0.0 5.990258810640899e-06  0.
-1.5759103101123796e-13 5.990258756686121e-06  0.
-1.0116107649646943e-12 5.990258343218876e-06  0.
-5.6294094179260055e-12 5.990255907709014e-06  0.
-2.750440196344151e-11 5.990243335096113e-06  0.
-1.1773083166044813e-10 5.990186536457897e-06  0.
-4.414757183171503e-10 5.9899623216932e-06  0.
-1.4544032279680453e-09 5.989187945982757e-06  0.
-4.232553325692998e-09 5.986838088486092e-06  0.
-1.0957819543218162e-08 5.980532322175853e-06  0.
-2.542750772218994e-08 5.965458186532225e-06  0.
-5.328067581317368e-08 5.933119134088767e-06  0.
-1.0154023812264956e-07 5.870402252183373e-06  0.
-1.771976257982098e-07 5.759694473384907e-06  0.
-2.8506106153166535e-07 5.58061197947924e-06  0.
-4.256033159455118e-07 5.313433061937295e-06  0.
-5.946120281545909e-07 4.9440484550786755e-06  0.
-7.894467043836921e-07 4.47465848711589e-06  0.
-1.0431194634375834e-06 3.9698343535526976e-06  0.
-1.5370979300973253e-06 3.7349791138363347e-06  0.
-2.6786229572233184e-06 4.5679962085581e-06  0.
0.0 8.861700837564888e-06  0.
-3.037981731280571e-13 8.861700744078451e-06  0.
-2.0026753285595943e-12 8.861700010749663e-06  0.
-1.145653415045141e-11 8.86169557152941e-06  0.
-5.7496125731169857e-11 8.86167203143905e-06  0.
-2.5222085897519704e-10 8.861563014275597e-06  0.
-9.653185283906845e-10 8.861123619560206e-06  0.
-3.226524762802734e-09 8.859583847596859e-06  0.
-9.457405742613958e-09 8.854881985306246e-06  0.
-2.4471660334207897e-08 8.842304320908425e-06  0.
-5.633522756213963e-08 8.812618911203679e-06  0.
-1.1629626849112081e-07 8.750333698734168e-06  0.
-2.1699739357988092e-07 8.633281060063881e-06  0.
-3.687706239025832e-07 8.434819789370096e-06  0.
-5.751838989466577e-07 8.129155442397192e-06  0.
-8.301581896984965e-07 7.698894205887259e-06  0.
-1.1211211860668251e-06 7.144948928721134e-06  0.
-1.4504247854344283e-06 6.512049585419188e-06  0.
-1.9115720829412736e-06 5.9908461257611834e-06  0.
-2.8204117673547943e-06 6.158504977687433e-06  0.
-4.42060516876102e-06 7.689438372323834e-06  0.
0.0 1.1117877127348405e-05  0.
-5.449568753869424e-13 1.1117876977722897e-05  0.
-3.67730559293493e-12 1.1117875779739104e-05  0.
-2.1553131928664475e-11 1.1117868352285998e-05  0.
-1.1074995775749056e-10 1.1117828027746669e-05  0.
-4.964204247020771e-10 1.111763717286685e-05  0.
-1.9338733306485727e-09 1.1116853921915759e-05  0.
-6.540230552422938e-09 1.1114076332023832e-05  0.
-1.924566241584996e-08 1.110556803156292e-05  0.
-4.95576536936056e-08 1.1082980577681257e-05  0.
-1.1255054542902742e-07 1.103067886275041e-05  0.
-2.2737900133114532e-07 1.0924239624174652e-05  0.
-4.121900335115964e-07 1.0732389532269774e-05  0.
-6.764568432696546e-07 1.042371157921323e-05  0.
-1.0138866771580644e-06 9.977341321150245e-06  0.
-1.402383335157568e-06 9.394568432375058e-06  0.
-1.8176129848097773e-06 8.715725136393465e-06  0.
-2.2867725900944685e-06 8.076926689960403e-06  0.
-3.0072218508408403e-06 7.886177523792059e-06  0.
-4.349647278287618e-06 8.913631123436079e-06  0.
-6.10483913798446e-06 1.0983638764920162e-05  0.
0.0 1.3218328503014365e-05  0.
-9.13891740142592e-13 1.3218328281141226e-05  0.
-6.294098273178976e-12 1.3218326472646896e-05  0.
-3.768218173223681e-11 1.3218315023945475e-05  0.
-1.9767694375567807e-10 1.3218251575683001e-05  0.
-9.029799642871944e-10 1.3217945507895984e-05  0.
-3.572232695562774e-09 1.3216669567986667e-05  0.
-1.2197834729182786e-08 1.3212100049475178e-05  0.
-3.594865459050197e-08 1.319808982533631e-05  0.
-9.181085794485047e-08 1.3161299947186246e-05  0.
-2.0475536497086605e-07 1.3078168777240174e-05  0.
-4.0252675910970044e-07 1.2915285100116645e-05  0.
-7.044566083198112e-07 1.263624077779037e-05  0.
-1.1092456645242092e-06 1.221466149879562e-05  0.
-1.5894836964238162e-06 1.1647867274066936e-05  0.
-2.1016585542775413e-06 1.0968701901421048e-05  0.
-2.6260310125347626e-06 1.0270741868484118e-05  0.
-3.256175569047232e-06 9.818379992407027e-06  0.
-4.299790861281845e-06 1.023577043670807e-05  0.
-5.937805222743092e-06 1.2058989487394771e-05  0.
-7.598463981428083e-06 1.4002165652174075e-05  0.
0.0 1.578989217621885e-05  0.
-1.4349791325058222e-12 1.578989187315234e-05  0.
-1.005906254771298e-11 1.5789889364072626e-05  0.
-6.133970940822255e-11 1.5789873189931372e-05  0.
-3.2761034667498605e-10 1.5789781933548815e-05  0.
-1.5213127713909105e-09 1.5789334355067576e-05  0.
-6.098943697079896e-09 1.5787442847302374e-05  0.
-2.0990839658229546e-08 1.5780612804500972e-05  0.
-6.185358176472553e-08 1.5759682842247e-05  0.
-1.563179279109532e-07 1.5705436381991716e-05  0.
-3.411353444087259e-07 1.55863118265611e-05  0.
-6.497168001697832e-07 1.536306785834894e-05  0.
-1.09302375950814e-06 1.5002342042817702e-05  0.
-1.6461888780519982e-06 1.4493916856507366e-05  0.
-2.256441462298757e-06 1.3860300257550063e-05  0.
-2.874425729622377e-06 1.3162840325959513e-05  0.
-3.532051391834687e-06 1.2552299195348917e-05  0.
-4.437023340051026e-06 1.2432594477596189e-05  0.
-5.899497260190064e-06 1.3452217592539028e-05  0.
-7.660208740987113e-06 1.5335128054663588e-05  0.
-9.17495534812724e-06 1.658870980464046e-05  0.
0.0 1.8221227417056538e-05  0.
-2.1127070015775207e-12 1.822122703687354e-05  0.
-1.503391680175945e-11 1.822122384734146e-05  0.
-9.311950728847526e-11 1.8221202967744825e-05  0.
-5.050013035295505e-10 1.8221083352656344e-05  0.
-2.3781254259739457e-09 1.8220488324921883e-05  0.
-9.641888342291692e-09 1.821794433978119e-05  0.
-3.339659588391929e-08 1.8208696065104182e-05  0.
-9.827750766784073e-08 1.8180398851580248e-05  0.
-2.4541991363769054e-07 1.810809606808044e-05  0.
-5.228275596561285e-07 1.7954224630327798e-05  0.
-9.616249010616748e-07 1.7679931775098516e-05  0.
-1.5518552150074969e-06 1.7264353325149817e-05  0.
-2.238522097730656e-06 1.6718198083984336e-05  0.
-2.9582083373393184e-06 1.6081141936308648e-05  0.
-3.702560614892579e-06 1.54280787252986e-05  0.
-4.596972748006517e-06 1.4985664071073467e-05  0.
-5.945464403985134e-06 1.5281701783804315e-05  0.
-7.796541878144238e-06 1.666706403501827e-05  0.
-9.53019613109933e-06 1.7999771846599027e-05  0.
-1.0843368428760523e-05 1.885471625710036e-05  0.
0.0 2.0455952708162377e-05  0.
-2.9238137909710106e-12 2.045595227112587e-05  0.
-2.1067600393850767e-11 2.0455948564220108e-05  0.
-1.322015060546405e-10 2.0455923987171592e-05  0.
-7.26146612342076e-10 2.0455781404427535e-05  0.
-3.4597482861158305e-09 2.045506377225555e-05  0.
-1.4159218987663339e-08 2.0451966111647474e-05  0.
-4.92924843737265e-08 2.0440644454290935e-05  0.
-1.4476329536298718e-07 2.040607631511279e-05  0.
-3.570604321710026e-07 2.0319012302316815e-05  0.
-7.418176559057415e-07 2.013963826893912e-05  0.
-1.3155163749405793e-06 1.9836610098320772e-05  0.
-2.0372644385742353e-06 1.9407688339523373e-05  0.
-2.833295878055113e-06 1.8877576128746733e-05  0.
-3.6642899627305465e-06 1.8285097743972677e-05  0.
-4.612302900012869e-06 1.7724052325721425e-05  0.
-5.879167482239547e-06 1.7518706413026403e-05  0.
-7.663781966107505e-06 1.8219666704176834e-05  0.
-9.589132571026384e-06 1.9565131245919443e-05  0.
-1.1067556055416577e-05 2.0333617222464518e-05  0.
-1.2319582554133429e-05 2.1426366913790252e-05  0.
0.0 2.2961360111388452e-05  0.
-3.8076275227545154e-12 2.2961359657744714e-05  0.
-2.7714672836439807e-11 2.2961355775338395e-05  0.
-1.7575214671639003e-10 2.296132976595091e-05  0.
-9.753714038647482e-10 2.2961177310778984e-05  0.
-4.691448959595756e-09 2.29604025969181e-05  0.
-1.9346156754491517e-08 2.2957032191083275e-05  0.
-6.761848349792245e-08 2.2944659869126482e-05  0.
-1.9815072266157658e-07 2.2906962118407148e-05  0.
-4.830575615010877e-07 2.281326419743273e-05  0.
-9.796025023964428e-07 2.2626121281206642e-05  0.
-1.6761840895472347e-06 2.2326654579137726e-05  0.
-2.4993408084685e-06 2.193074122086916e-05  0.
-3.3907117358399025e-06 2.146251989749376e-05  0.
-4.371539114311842e-06 2.0945927304177117e-05  0.
-5.597933183597936e-06 2.052489828107962e-05  0.
-7.241463580607384e-06 2.0614398945147557e-05  0.
-9.128273662274146e-06 2.1535037706013197e-05  0.
-1.0762669409611372e-05 2.2428907164790528e-05  0.
-1.1948732831089282e-05 2.283990621242179e-05  0.
-1.3367823643131792e-05 2.4027874069957796e-05  0.
0.0 2.5284600789339536e-05  0.
-4.67056829189626e-12 2.528460037314451e-05  0.
-3.4261183472639135e-11 2.5284596786758826e-05  0.
-2.1903269092547154e-10 2.528457256907366e-05  0.
-1.225261866015132e-09 2.5284429492746042e-05  0.
-5.936602054283424e-09 2.5283697077712212e-05  0.
-2.4623962119590475e-08 2.5280491473507127e-05  0.
-8.632216511444283e-08 2.5268685414439756e-05  0.
-2.524428062086074e-07 2.5232780713381274e-05  0.
-6.091923322202863e-07 2.5144538507068397e-05  0.
-1.2091649305319643e-06 2.4973047959255338e-05  0.
-2.0031649768599995e-06 2.4712117522205824e-05  0.
-2.8932510892719084e-06 2.438845662103961e-05  0.
-3.880990608552067e-06 2.401479907087774e-05  0.
-5.060194707958507e-06 2.3600011777073956e-05  0.
-6.5401061745106576e-06 2.3349285325609368e-05  0.
-8.32895302877164e-06 2.3675555340058562e-05  0.
-9.96959714003842e-06 2.4466422854207954e-05  0.
-1.1304613708827227e-05 2.4885345918561983e-05  0.
-1.2636418124379311e-05 2.5244278669080932e-05  0.
-1.3873894777318107e-05 2.589156002135767e-05  0.
0.0 2.768370359284121e-05  0.
-5.401543056502916e-12 2.768370327239368e-05  0.
-3.984237416360213e-11 2.7683700497638264e-05  0.
-2.5617990022514906e-10 2.768368165510525e-05  0.
-1.4411661255875732e-09 2.7683569712414427e-05  0.
-7.019019357569126e-09 2.7682993688866248e-05  0.
-2.9234417096948075e-08 2.7680461862817918e-05  0.
-1.0269797035643486e-07 2.7671116081779426e-05  0.
-2.9984258907274953e-07 2.7642736781695137e-05  0.
-7.179340992237805e-07 2.7573588362715087e-05  0.
-1.4011289402103748e-06 2.7442063766368907e-05  0.
-2.261707806180152e-06 2.7250117632794098e-05  0.
-3.1897661932508823e-06 2.702452308410689e-05  0.
-4.274863156561046e-06 2.6766321091548302e-05  0.
-5.6594099747577645e-06 2.6478468160560733e-05  0.
-7.258038971878902e-06 2.637655921251748e-05  0.
-8.928715900023868e-06 2.6742744223242216e-05  0.
-1.039338362446336e-05 2.720177986414259e-05  0.
-1.1693603191599138e-05 2.7362252924351157e-05  0.
-1.3240504298764955e-05 2.777709720596849e-05  0.
-1.4246007750660984e-05 2.799495969156552e-05  0.
0.0 3.0069198262326874e-05  0.
-5.892568842809711e-12 3.006919808783095e-05  0.
-4.360749224718448e-11 3.006919657242487e-05  0.
-2.813512611514059e-10 3.006918624667793e-05  0.
-1.5881076673485284e-09 3.0069124693800806e-05  0.
-7.758686319786322e-09 3.006880695668039e-05  0.
-3.239510626275542e-08 3.0067406745077078e-05  0.
-1.1394080295003574e-07 3.0062230703221234e-05  0.
-3.323191408741668e-07 3.0046526649928952e-05  0.
-7.917810663091878e-07 3.0008462805478322e-05  0.
-1.5286421429102322e-06 2.9937038594655363e-05  0.
-2.4263168741438965e-06 2.9835618997826884e-05  0.
-3.3724009758328586e-06 2.97206737901081e-05  0.
-4.534289515587818e-06 2.9589492949631327e-05  0.
-6.068151880192079e-06 2.9443496826817902e-05  0.
-7.666022642990919e-06 2.941785286473965e-05  0.
-9.166729800610359e-06 2.964204234735393e-05  0.
-1.0690795586824357e-05 2.9845399351678035e-05  0.
-1.2058009098883809e-05 2.9867014295418626e-05  0.
-1.3424463073097075e-05 3.0098559808412353e-05  0.
-1.4643350952106737e-05 3.0327089839319194e-05  0.
0.0 3.244999999999995e-05  0.
-6.065691435448007e-12 3.244999999999995e-05  0.
-4.493783560360897e-11 3.244999999999995e-05  0.
-2.9026518863364037e-10 3.244999999999995e-05  0.
-1.640259986985278e-09 3.244999999999995e-05  0.
-8.021751103895581e-09 3.244999999999995e-05  0.
-3.3521081335716435e-08 3.244999999999995e-05  0.
-1.1794914626819042e-07 3.244999999999995e-05  0.
-3.4388667565297135e-07 3.244999999999995e-05  0.
-8.179663969184786e-07 3.244999999999995e-05  0.
-1.5733390174995108e-06 3.244999999999995e-05  0.
-2.482714912948577e-06 3.244999999999995e-05  0.
-3.4339472598963555e-06 3.244999999999995e-05  0.
-4.625166560577745e-06 3.244999999999995e-05  0.
-6.212415400359687e-06 3.244999999999995e-05  0.
-7.793246209256706e-06 3.244999999999995e-05  0.
-9.228705104988708e-06 3.244999999999995e-05  0.
-1.081453020173143e-05 3.244999999999995e-05  0.
-1.2195860708116888e-05 3.244999999999995e-05  0.
-1.3399888922218076e-05 3.244999999999995e-05  0.
-1.4785019386053953e-05 3.244999999999995e-05  0.
</DataArray>
<DataArray type="Float64" Name="sigma_xx" NumberOfComponents="1" format="ascii" >
843.848683684811 
843.8482256734044 
843.8459616733059 
843.8380585618073 
843.8134012300754 
843.7433927310774 
843.5612188883997 
843.1241763195981 
842.1524304025315 
840.1405671709658 
836.2461566990828 
829.1723444187046 
817.0772081816933 
797.5553722505688 
767.7403591421769 
724.5613705963992 
665.1459468043352 
587.1630425979822 
486.71364354935224 
318.7873897136926 
207.42654324168433 
3464.141753550808 
3464.1405382174185 
3464.1342969599077 
3464.1114534161843 
3464.0368788307883 
3463.8161879763084 
3463.219952049011 
3461.7403359304953 
3458.348957469103 
3451.1339708331857 
3436.8245119958938 
3410.2654968365387 
3363.976766793119 
3287.9959349169085 
3170.228408974628 
2997.477254229607 
2757.1533355613674 
2438.9398199237125 
2027.8411835911165 
1378.7162749523402 
961.0041964647204 
19519.398456446786 
19519.39371528932 
19519.36840235979 
19519.271339357707 
19518.940484136707 
19517.923064854553 
19515.08021031389 
19507.81575734139 
19490.738805949528 
19453.611885494873 
19378.60408259828 
19237.18751607461 
18987.442117451843 
18572.93491138167 
17924.506721492253 
16966.01632761307 
15624.059138186201 
13837.0316385028 
11511.613454401322 
7829.531562836275 
5461.330147266128 
92935.8784869216 
92935.86190959321 
92935.77015659357 
92935.40301398837 
92934.10149918131 
92929.95849227157 
92918.03139387097 
92886.76847090668 
92811.68986017272 
92645.54483684458 
92304.98914113146 
91655.40003090163 
90497.5812012376 
88562.05344130172 
85517.41968520485 
80997.75814892349 
74648.5159265203 
66163.4005091005 
55029.54669492908 
37182.22271126002 
25657.573525578166 
376423.03505998047 
376422.98258782056 
376422.68210412713 
376421.43083353445 
376416.8307982095 
376401.7191880463 
376357.04460657877 
376237.3671976847 
375944.9177295924 
375289.0056264445 
373931.1626754253 
371323.31287096906 
366654.9878736546 
358833.30182069336 
346521.04626777803 
328250.59624342056 
302604.43730931997 
268316.239897906 
222963.74287484313 
149346.69512232093 
101628.56323864262 
1274704.2068098064 
1274704.055481934 
1274703.1609465827 
1274699.296128023 
1274684.6069865532 
1274634.9733240288 
1274484.870830533 
1274075.721888637 
1273063.4950701476 
1270775.5546480203 
1266021.727444055 
1256890.4173515579 
1240590.8768703535 
1213422.6712766618 
1170949.1072196595 
1108409.3002946354 
1021289.7068541362 
905367.6778550649 
750943.4959644288 
497083.3523287308 
331959.73797188175 
3525878.420638394 
3525878.021144695 
3525875.5895047 
3525864.723506377 
3525822.160032273 
3525674.7333798143 
3525220.4685812704 
3523966.6133113042 
3520844.170947359 
3513779.5613536513 
3499161.520860698 
3471326.4342579837 
3422266.444816268 
3341783.146510062 
3218232.276758477 
3039808.041433868 
2795876.9256295552 
2475573.1971847876 
2046347.4460871317 
1332069.2702567189 
866275.0576046648 
7722868.870214481 
7722867.901783811 
7722861.847723897 
7722833.956378248 
7722721.707623132 
7722324.47806668 
7721082.346180867 
7717627.857048395 
7709021.978353301 
7689679.4353442015 
7650183.402575589 
7576434.362260692 
7449705.654061179 
7248060.700595031 
6949081.856030449 
6533168.127232025 
5985124.832196009 
5284641.959733989 
4341100.671679366 
2754935.6706200168 
1720511.4350641193 
12883656.995191647 
12883654.834443238 
12883640.997704769 
12883575.484772315 
12883305.429104485 
12882332.091072205 
12879254.960003424 
12870674.543149702 
12849426.278794296 
12802364.370329909 
12708487.201522173 
12538719.58839574 
12258640.93665224 
11834452.18591709 
11240753.423520189 
10466493.276994787 
9511678.444559608 
8349244.5943299625 
6771456.888973262 
4114374.1464229506 
2394824.1147952555 
15775049.59861597 
15775045.146502744 
15775016.015575366 
15774874.692503741 
15774279.68467153 
15772101.639655538 
15765162.87000385 
15745849.028710898 
15698594.513038589 
15596286.579098336 
15399008.66749211 
15058142.30910885 
14527589.799139464 
13779998.911235662 
12821714.255227365 
11695923.247413822 
10456347.946083497 
9061071.134304754 
7120092.297590632 
3950598.937453037 
1969121.555713985 
14394667.175935533 
14394658.660542637 
14394601.85899544 
14394320.26299693 
14393112.268337224 
14388631.34410135 
14374282.05693911 
14334553.135029314 
14239027.340845391 
14038397.203456217 
13668302.94527305 
13065949.368981488 
12198250.106674843 
11091144.285818303 
9841389.389786972 
8593593.73724435 
7450827.6535457205 
6267972.615717496 
4452722.310349485 
1885389.5406015485 
489521.27154927887 
12225157.51977808 
12225142.326608295 
12225039.224903436 
12224518.147066863 
12222245.366737626 
12213717.472019915 
12186316.333083723 
12111050.135805475 
11934000.434847713 
11575870.331665732 
10950511.575235948 
10006235.985502042 
8775015.060766872 
7399778.806052751 
6106712.311784973 
5105145.983171694 
4396653.900320083 
3520788.2510768618 
1813025.8093898348 
153449.61802084604 
-372803.43993754406 
13112501.560918907 
13112476.20905773 
13112301.543066196 
13111403.675554885 
13107429.872335657 
13092371.987183198 
13043895.77828923 
12912054.234107362 
12609821.286069851 
12025277.930621693 
11070133.349598687 
9755403.490086857 
8246783.880306215 
6839186.201565733 
5832750.788042837 
5312565.220924342 
4909403.135677842 
3752098.6881642593 
1582255.77826194 
72037.41522742505 
-172302.27922886098 
14043169.53170684 
14043129.899836741 
14042853.230763393 
14041409.948237311 
14034941.077643294 
14010224.070133103 
13930589.160167942 
13716427.489119302 
13239428.619088415 
12363434.847646348 
11041084.087039828 
9415908.246541163 
7833266.619293878 
6681413.014023513 
6132660.06581514 
5893545.506738023 
5115950.37801107 
3035692.099176096 
575145.1454736076 
-432423.8988619852 
-397483.85312074656 
13095482.06896944 
13095423.898430407 
13095013.207818776 
13092843.670654073 
13083014.21080353 
13045193.523317428 
12923332.862714497 
12599428.125811784 
11899603.831719978 
10686286.5438823 
9017341.662698591 
7229869.293439921 
5814246.322047953 
5071874.167461046 
4780818.811326267 
4206730.336879945 
2427733.1022306783 
-267512.7416461946 
-1714112.5247895902 
-971745.4178159882 
-172682.24128135433 
13303899.821582848 
13303819.530453688 
13303247.287141664 
13300192.334490485 
13286225.800751794 
13232176.075876964 
13058089.849279229 
12600614.241448112 
11641792.591668796 
10078431.037197648 
8147038.3641753895 
6397676.498304554 
5312004.571869727 
4865501.419233134 
4350395.871667895 
2919954.76493137 
467626.0740405696 
-1548650.655514605 
-1246478.582979887 
61099.40760325524 
477845.83123600995 
13552863.749356009 
13552759.408210935 
13552010.042824395 
13547975.262606336 
13529393.831674116 
13457152.028186608 
13224613.561529074 
12619868.002611335 
11388169.562130244 
9500852.063660445 
7434791.394028895 
5912274.108178252 
5155417.157540226 
4649754.215174925 
3524680.997426837 
1387777.7885770188 
-581553.0943854337 
-970306.1742991037 
109177.22302007442 
124358.67854508711 
-661334.3380291862 
13253742.500857797 
13253614.701148085 
13252691.415758532 
13247687.380243398 
13224511.772895453 
13134089.363946728 
12843217.783458194 
12093395.084861392 
10603821.955964617 
8450258.113316646 
6377165.895509526 
5192968.759455971 
4609716.957461673 
3640144.4166637533 
1958390.5554816592 
-46171.81568800076 
-853066.2383875977 
-156365.08028103993 
88364.22531811334 
-188901.41208336642 
-221932.12461099774 
13428867.293605313 
13428719.652956586 
13427648.535948751 
13421816.07872981 
13394695.186326228 
13288615.128148513 
12947564.316068318 
12074227.151948322 
10372611.847869994 
8028346.971418961 
6031227.489321214 
5189480.510229622 
4589597.6486146515 
2946096.9789477373 
1118989.9275604289 
64806.08783883322 
-98645.07646648353 
443575.772801416 
-227963.71667431458 
102511.65898009017 
1436072.3732569003 
13377374.57949239 
13377213.618882675 
13376042.93029838 
13369650.45282823 
13339854.149306607 
13223136.16258824 
12848022.362164348 
11891443.54377257 
10050477.573760513 
7594613.376933385 
5686020.399966283 
5092422.882419273 