<?xml version="1.0"?>
<VTKFile type="UnstructuredGrid" version="0.1" byte_order="LittleEndian" compressor="vtkZLibDataCompressor">
<UnstructuredGrid>
<Piece NumberOfPoints="441" NumberOfCells="400">
<PointData>
<DataArray type="Float64" Name="displacement" NumberOfComponents="3" format="ascii" >
0.0 2.888354798529367e-17  0.
1.1748445792916657e-21 2.88901740227176e-17  0.
-1.0258241457436112e-23 2.8891228095140475e-17  0.
-2.1755099510432935e-22 2.889105145767273e-17  0.
-2.368020610098617e-22 2.8889819306151543e-17  0.
-1.2825270275424024e-22 2.8889585135949454e-17  0.
-1.6389842971722074e-21 2.8888525456157894e-17  0.
-4.211248237652458e-21 2.888105777859601e-17  0.
-1.1822860821692637e-20 2.8862917626776586e-17  0.
-2.75027745808705e-20 2.883114226114196e-17  0.
-5.97390718156061e-20 2.874653945933541e-17  0.
-1.0879861543710373e-19 2.8582612374671423e-17  0.
-2.0514802417046639e-19 2.8295082411177236e-17  0.
-3.447241134156519e-19 2.778988945862871e-17  0.
-5.583248913744264e-19 2.6950508566307967e-17  0.
-8.392810404129564e-19 2.565131027730433e-17  0.
-1.1810000633644871e-18 2.3769564452189473e-17  0.
-1.5676573368595593e-18 2.1206151175025356e-17  0.
-1.9820767083540813e-18 1.7909969724814748e-17  0.
-2.5162810061933973e-18 1.3982323849149408e-17  0.
-6.95367202456975e-18 1.4045667707696808e-17  0.
0.0 2.6938424112976727e-16  0.
-5.565702806126427e-22 2.693865224581999e-16  0.
-1.260461855324497e-22 2.6938617924455487e-16  0.
-1.6948591059672635e-22 2.6938616258303947e-16  0.
-9.23628890623287e-22 2.6938577776816513e-16  0.
-2.3129193952729436e-21 2.6938302611241797e-16  0.
-9.915475931806577e-21 2.693721883726665e-16  0.
-3.258662099188408e-20 2.6933022790501286e-16  0.
-8.417145933156803e-20 2.692341455634908e-16  0.
-2.0931723636082098e-19 2.689703108606395e-16  0.
-4.635149005016149e-19 2.6838177993987274e-16  0.
-9.458776017417588e-19 2.671424418870896e-16  0.
-1.772777337236965e-18 2.647206798189806e-16  0.
-3.115200762822354e-18 2.6034879285526277e-16  0.
-5.094016038127294e-18 2.5298465643609916e-16  0.
-7.797998808925703e-18 2.414124458892249e-16  0.
-1.1196032739186233e-17 2.243191772909113e-16  0.
-1.5104772296650652e-17 2.0063067154787153e-16  0.
-1.926653022121636e-17 1.6970264454972364e-16  0.
-2.4626570871710612e-17 1.3311347062595866e-16  0.
-7.267524478540866e-17 1.3573071793102828e-16  0.
0.0 4.475988232551621e-15  0.
-1.768625205777512e-21 4.475981865442172e-15  0.
-1.5237731652879335e-21 4.475974523248801e-15  0.
-4.608713573612109e-22 4.4759728335373954e-15  0.
-6.545971109029094e-21 4.475966888972134e-15  0.
-2.9813266227828364e-20 4.475936633308591e-15  0.
-1.149747115879927e-19 4.475813225624662e-15  0.
-3.771848485664524e-19 4.475409290589748e-15  0.
-1.0779178553698589e-18 4.474174676713225e-15  0.
-2.7873649227194826e-18 4.470864271609669e-15  0.
-6.484989291687327e-18 4.4628511830762666e-15  0.
-1.3776894562010502e-17 4.4452326920403266e-15  0.
-2.6894657297549588e-17 4.409703884676059e-15  0.
-4.8544225340259275e-17 4.343509952214635e-15  0.
-8.135202526654541e-17 4.2291789665255284e-15  0.
-1.2705517479290769e-16 4.045212457991231e-15  0.
-1.855362440275153e-16 3.7686827452748784e-15  0.
-2.5395797591972096e-16 3.379225393997766e-15  0.
-3.2733270181381604e-16 2.8651017788941803e-15  0.
-4.2252195067190765e-16 2.2523831685140787e-15  0.
-1.2438706063335795e-15 2.3053113807235374e-15  0.
0.0 6.6330869149745e-14  0.
-4.797002890105167e-21 6.633086103121007e-14  0.
-1.5726441277287258e-21 6.633086236967051e-14  0.
-5.934261923850349e-21 6.633085466451617e-14  0.
-5.0654576503980715e-20 6.633080949895606e-14  0.
-2.5186299884040012e-19 6.633057274003176e-14  0.
-1.0704406465969086e-18 6.632951419793739e-14  0.
-3.81199983342488e-18 6.632553700352146e-14  0.
-1.1822946424993957e-17 6.631259727557555e-14  0.
-3.240233891503125e-17 6.627556800177615e-14  0.
-7.958641109571624e-17 6.61808618215671e-14  0.
-1.768442031508732e-16 6.596229373667626e-14  0.
-3.5870133823924367e-16 6.550294989292908e-14  0.
-6.683674917289445e-16 6.461750201957517e-14  0.
-1.1504462193417444e-15 6.304292985514721e-14  0.
-1.8371790309278856e-15 6.044767732233623e-14  0.
-2.7321780450218078e-15 5.6467487090719215e-14  0.
-3.795263911943317e-15 5.077013784466637e-14  0.
-4.9506228617345815e-15 4.3152880344593764e-14  0.
-6.469208866380296e-15 3.4019472948169614e-14  0.
-1.892077203159495e-14 3.495523877310392e-14  0.
0.0 8.677910884670495e-13  0.
-7.085157003875252e-21 8.677910920026582e-13  0.
-1.7219857011644884e-21 8.677910931025569e-13  0.
-3.8072314415429064e-20 8.677910664666392e-13  0.
-2.9085908832076027e-19 8.677908440906087e-13  0.
-1.7295978113750102e-18 8.67789369240642e-13  0.
-8.21394719316754e-18 8.677818162176535e-13  0.
-3.256717007601338e-17 8.677499018377964e-13  0.
-1.1011297222629902e-16 8.676357871574704e-13  0.
-3.2458309610701356e-16 8.672823618113527e-13  0.
-8.462659595888261e-16 8.663182004997328e-13  0.
-1.978035840248037e-15 8.639688924353272e-13  0.
-4.1838671576471675e-15 8.588018771823765e-13  0.
-8.075786686390665e-15 8.484547452777919e-13  0.
-1.4312956623693654e-14 8.294593965293992e-13  0.
-2.341977433553771e-14 7.973095676021572e-13  0.
-3.552525438587752e-14 7.469147693244786e-13  0.
-5.014371172630245e-14 6.734897453301305e-13  0.
-6.625526031892554e-14 5.739716823240145e-13  0.
-8.777070872120476e-14 4.539341616905192e-13  0.
-2.545703024186553e-13 4.685630280099764e-13  0.
0.0 9.93515744304086e-12  0.
-5.7598878113134366e-21 9.935157441606404e-12  0.
-1.3587155193000185e-20 9.93515743013764e-12  0.
-1.6647658929601543e-19 9.935157322797223e-12  0.
-1.3880009036048699e-18 9.9351563217346e-12  0.
-9.45166837678715e-18 9.935148978631842e-12  0.
-5.1854723964821795e-17 9.93510518568199e-12  0.
-2.312812705195921e-16 9.93489473459036e-12  0.
-8.650187956090736e-16 9.934055229614164e-12  0.
-2.765308821152226e-15 9.931213013163444e-12  0.
-7.72059070747828e-15 9.922862134685362e-12  0.
-1.9083561556526606e-14 9.901231599977469e-12  0.
-4.230814104612369e-14 9.851168816961946e-12  0.
-8.488151547506877e-14 9.74658592805252e-12  0.
-1.5537210552820144e-13 9.54771639752013e-12  0.
-2.610150241001166e-13 9.201212161023456e-12  0.
-4.0456475480938864e-13 8.644983064755162e-12  0.
-5.809329051987041e-13 7.81886592861987e-12  0.
-7.784147848592849e-13 6.6826555085386885e-12  0.
-1.0469613291577524e-12 5.304611497571444e-12  0.
-3.0043136374180266e-12 5.505571168655583e-12  0.
0.0 9.853562857538636e-11  0.
-1.2966073416613034e-20 9.853562857355496e-11  0.
-5.09539453335492e-20 9.85356285466352e-11  0.
-5.959079868085719e-19 9.853562818615152e-11  0.
-5.544180574809643e-18 9.853562460538318e-11  0.
-4.247309918387346e-17 9.85355947572757e-11  0.
-2.663554312940205e-16 9.85353910362833e-11  0.
-1.356743948556774e-15 9.853426153253304e-11  0.
-5.6544636135551e-15 9.852918613066649e-11  0.
-1.9848514556580914e-14 9.851015566108911e-11  0.
-5.97423764346247e-14 9.844940151564584e-11  0.
-1.5733235163311246e-13 9.828076137479646e-11  0.
-3.6720943167205556e-13 9.78676737596923e-11  0.
-7.690888906842874e-13 9.69631472659505e-11  0.
-1.4578030408159e-12 9.517537719808523e-11  0.
-2.5205935284010354e-12 9.195987539408345e-11  0.
-3.998016432735243e-12 8.66632269378581e-11  0.
-5.848423168243456e-12 7.863224034561164e-11  0.
-7.955213380459857e-12 6.741370278556259e-11  0.
-1.0882955671146921e-11 5.3745827623200093e-11  0.
-3.080033132778774e-11 5.615177852637098e-11  0.
0.0 8.366413075632116e-10  0.
-1.9267443145858145e-20 8.366413075715956e-10  0.
-1.5156577657978542e-19 8.366413074947719e-10  0.
-1.8689431174740613e-18 8.366413064765507e-10  0.
-1.891137681769469e-17 8.366412954218781e-10  0.
-1.6072053318635354e-16 8.366411936456039e-10  0.
-1.1311768052943186e-15 8.366404143179507e-10  0.
-6.5153590315825295e-15 8.366355203787689e-10  0.
-3.0620659038385745e-14 8.366104708418408e-10  0.
-1.186343914462934e-13 8.365057488133446e-10  0.
-3.888163414565151e-13 8.361386415219786e-10  0.
-1.096471883920802e-12 8.350390631658288e-10  0.
-2.7105203142774635e-12 8.321696866205031e-10  0.
-5.945633410917486e-12 8.255543247504784e-10  0.
-1.1709861901668907e-11 8.119134243728194e-10  0.
-2.087604245107896e-11 7.865213704313248e-10  0.
-3.394506851114386e-11 7.435173272330909e-10  0.
-5.063300639804651e-11 6.768623560541535e-10  0.
-6.999963867421147e-11 5.822326891845453e-10  0.
-9.758429642858302e-11 4.666418426168886e-10  0.
-2.712662316927087e-10 4.915135261243299e-10  0.
0.0 5.997510732129181e-09  0.
-2.5113867347642806e-20 5.997510732114919e-09  0.
-4.0706309079647775e-19 5.997510731926762e-09  0.
-5.1733098293651405e-18 5.997510729394886e-09  0.
-5.63764027214412e-17 5.997510699675086e-09  0.
-5.2243926383163675e-16 5.9975104022730316e-09  0.
-4.054012478547151e-15 5.9975078969824845e-09  0.
-2.600759380225716e-14 5.997490375431626e-09  0.
-1.366999133958503e-13 5.997389851242587e-09  0.
-5.890322532188958e-13 5.996918085464017e-09  0.
-2.1083185957846755e-12 5.995095250086578e-09  0.
-6.41209161358567e-12 5.989159562778039e-09  0.
-1.6842500412733353e-11 5.972580922420852e-09  0.
-3.885843549010423e-11 5.932150449824617e-09  0.
-7.966824521026157e-11 5.844917872506548e-09  0.
-1.4675672343897358e-10 5.676467358715358e-09  0.
-2.44822794427887e-10 5.382728665899772e-09  0.
-3.7271930939845436e-10 4.9168961008903675e-09  0.
-5.240911723155041e-10 4.2447630228159606e-09  0.
-7.461775890432643e-10 3.424575573005248e-09  0.
-2.0257845218384195e-09 3.6440597068118342e-09  0.
0.0 3.570255510386667e-08  0.
-6.048619539138397e-20 3.570255510384235e-08  0.
-9.575155136167236e-19 3.5702555103447015e-08  0.
-1.281342056036078e-17 3.5702555097780947e-08  0.
-1.489810548241565e-16 3.5702555027240235e-08  0.
-1.4843419627231558e-15 3.5702554270051966e-08  0.
-1.250437372464933e-14 3.5702547362247745e-08  0.
-8.791652671889308e-14 3.570249451867933e-08  0.
-5.101129745988757e-13 3.57021596847567e-08  0.
-2.427863778611429e-12 3.5700419020709856e-08  0.
-9.52055767506543e-12 3.569298999524779e-08  0.
-3.1248463986051125e-11 3.5666674232838154e-08  0.
-8.754279937339381e-11 3.558770750843532e-08  0.
-2.1267283502294603e-10 3.5383600312939564e-08  0.
-4.5479668478333114e-10 3.4921837636845206e-08  0.
-8.658298614433626e-10 3.3995991735900844e-08  0.
-1.482590713402117e-09 3.233294367759234e-08  0.
-2.302839088306602e-09 2.963517028659739e-08  0.
-3.295348908767932e-09 2.5684422964738448e-08  0.
-4.801275648364001e-09 2.0900770755547896e-08  0.
-1.263289810019353e-08 2.2532677804540756e-08  0.
0.0 1.7300551232612133e-07  0.
-1.301221544190997e-19 1.7300551232608843e-07  0.
-2.048034994734347e-18 1.7300551232533115e-07  0.
-2.8739950693009544e-17 1.7300551231395441e-07  0.
-3.529006947811124e-16 1.7300551216455734e-07  0.
-3.7375624581500615e-15 1.7300551046376857e-07  0.
-3.373434045513937e-14 1.7300549388051668e-07  0.
-2.562330630557355e-13 1.7300535711537587e-07  0.
-1.6179500361829603e-12 1.7300441538430489e-07  0.
-8.412816315467624e-12 1.72999061006105e-07  0.
-3.592644215101884e-11 1.7297408899679438e-07  0.
-1.2708100749950259e-10 1.7287812785820026e-07  0.
-3.7903011072353386e-10 1.72569651843174e-07  0.
-9.693727183096982e-10 1.7172523570783173e-07  0.
-2.1592128553674225e-09 1.697250909799784e-07  0.
-4.244112104222993e-09 1.6556671413522856e-07  0.
-7.445236959705752e-09 1.5788810402452083e-07  0.
-1.1780672649630937e-08 1.4517833225971144e-07  0.
-1.714379937201536e-08 1.263661581870018e-07  0.
-2.5608532952416046e-08 1.0405892295156424e-07  0.
-6.459772323754158e-08 1.1411741617229274e-07  0.
0.0 6.660196414129291e-07  0.
-2.4843432299907287e-19 6.660196414128625e-07  0.
-4.02429949484589e-18 6.66019641411524e-07  0.
-5.880370524765224e-17 6.660196413908292e-07  0.
-7.559104223433559e-16 6.66019641106663e-07  0.
-8.428491505364007e-15 6.660196377077762e-07  0.
-8.0609313689226e-14 6.660196026685887e-07  0.
-6.533075993698948e-13 6.660192950110834e-07  0.
-4.430988732032246e-12 6.660170233133168e-07  0.
-2.4863653034315517e-11 6.660030945698279e-07  0.
-1.1458417043602453e-10 6.659328661143382e-07  0.
-4.3425585495250107e-10 6.656426330992359e-07  0.
-1.3708368562735913e-09 6.646509410376417e-07  0.
-3.6736772391623557e-09 6.617959428801195e-07  0.
-8.48218119343574e-09 6.547609628099415e-07  0.
-1.713624324799347e-08 6.396889358749239e-07  0.
-3.065015213224479e-08 6.112591176053524e-07  0.
-4.919102221232004e-08 5.635767715387033e-07  0.
-7.26233939674307e-08 4.929561677438459e-07  0.
-1.1129420502073511e-07 4.131123853674077e-07  0.
-2.650644939729592e-07 4.6350256784440363e-07  0.
0.0 1.978632446831753e-06  0.
-4.345503512948314e-19 1.9786324468316336e-06  0.
-7.268589232908823e-18 1.9786324468295296e-06  0.
-1.1023780294695252e-16 1.9786324467953815e-06  0.
-1.4728008555523833e-15 1.978632446308926e-06  0.
-1.7147182107878317e-14 1.9786324402445413e-06  0.
-1.721435097105394e-13 1.9786323747444944e-06  0.
-1.4728952235537666e-12 1.978631768758122e-06  0.
-1.0606830469769019e-11 1.978627026351054e-06  0.
-6.348524596731943e-11 1.978596042929037e-06  0.
-3.1251742531569067e-10 1.9784291383772088e-06  0.
-1.2594065241556507e-09 1.977693910738065e-06  0.
-4.1795810096805e-09 1.9750436966575816e-06  0.
-1.1619815532875544e-08 1.9671213416892388e-06  0.
-2.7583773975981492e-08 1.9470556459767636e-06  0.
-5.6707198461538184e-08 1.9033550807943458e-06  0.
-1.0254628667588519e-07 1.8202561733163523e-06  0.
-1.6545605596618392e-07 1.6811551430405336e-06  0.
-2.466458649757883e-07 1.4795026972761024e-06  0.
-3.8684780248004525e-07 1.2748859052119305e-06  0.
-8.512369791816501e-07 1.474864915064847e-06  0.
0.0 4.406740000631923e-06  0.
-6.937882713223128e-19 4.406740000631765e-06  0.
-1.214147110486433e-17 4.4067400006287084e-06  0.
-1.8985778005316498e-16 4.406740000577839e-06  0.
-2.6198520488570042e-15 4.406739999830338e-06  0.
-3.162224146123613e-14 4.406739990181478e-06  0.
-3.3053250669143135e-13 4.4067398818311534e-06  0.
-2.9583406443075143e-12 4.406738834846615e-06  0.
-2.2391470831155757e-11 4.4067302356673165e-06  0.
-1.4144468555030394e-10 4.406671008965332e-06  0.
-7.36299113472111e-10 4.406333677735851e-06  0.
-3.12928375273923e-09 4.4047644027079425e-06  0.
-1.0845477777845133e-08 4.39884070618714e-06  0.
-3.100784422724298e-08 4.3805997985085005e-06  0.
-7.468827111895612e-08 4.333915642853228e-06  0.
-1.5431228797221864e-07 4.232443904611517e-06  0.
-2.780011817740654e-07 4.04238262768985e-06  0.
-4.45539659136575e-07 3.7334090363766437e-06  0.
-6.645931178005096e-07 3.3154031672423736e-06  0.
-1.0580988496378902e-06 2.9936736540017756e-06  0.
-2.086380644878539e-06 3.6004392699966214e-06  0.
0.0 7.306470695498548e-06  0.
-1.0507091460483637e-18 7.306470695498337e-06  0.
-1.880569350856253e-17 7.306470695494312e-06  0.
-3.0131376014489824e-16 7.3064706954260605e-06  0.
-4.2706596262832116e-15 7.306470694396382e-06  0.
-5.3107113618342066e-14 7.306470680715583e-06  0.
-5.738591765563044e-13 7.306470522059141e-06  0.
-5.329704780990566e-12 7.306468932975983e-06  0.
-4.202384894729779e-11 7.306455351536527e-06  0.
-2.7751624532315037e-10 7.3063576482960886e-06  0.
-1.5133629960548627e-09 7.3057748322647696e-06  0.
-6.7278203850326455e-09 7.302935893758085e-06  0.
-2.4197905210703362e-08 7.291786567590094e-06  0.
-7.06763523444921e-08 7.256639991417454e-06  0.
-1.7075652648566828e-07 7.166708081390149e-06  0.
-3.495702476224724e-07 6.975358592533644e-06  0.
-6.172270775488771e-07 6.631816010766091e-06  0.
-9.68331246254238e-07 6.112334702223098e-06  0.
-1.4303514770794087e-06 5.51974438708437e-06  0.
-2.264996747106499e-06 5.3831525498617e-06  0.
-3.860554128228143e-06 6.724601468053149e-06  0.
0.0 9.634008725288786e-06  0.
-1.4822828345859903e-18 9.634008725288563e-06  0.
-2.7100222090343905e-17 9.634008725283782e-06  0.
-4.428006772291757e-16 9.634008725201005e-06  0.
-6.414619007017651e-15 9.634008723925951e-06  0.
-8.172683725330255e-14 9.634008706583363e-06  0.
-9.072644249766076e-13 9.634008500156472e-06  0.
-8.68256907841606e-12 9.63400637182245e-06  0.
-7.07647980165153e-11 9.633987588435399e-06  0.
-4.844613241308416e-10 9.63384761868962e-06  0.
-2.744097555053157e-09 9.632980667358542e-06  0.
-1.26627432998083e-08 9.628593914612296e-06  0.
-4.699020392262036e-08 9.610776440319372e-06  0.
-1.395745280983492e-07 9.553476155924232e-06  0.
-3.3568727711924327e-07 9.40775734740866e-06  0.
-6.721828718369183e-07 9.109123075461964e-06  0.
-1.1517315150247223e-06 8.6051288100955e-06  0.
-1.7469896773973945e-06 7.935207331786946e-06  0.
-2.5452304081888045e-06 7.42260495730556e-06  0.
-3.870320297398072e-06 7.994564824588103e-06  0.
-5.595438788373754e-06 1.0009073082111887e-05  0.
0.0 1.179407389502638e-05  0.
-1.961951348273081e-18 1.1794073895026128e-05  0.
-3.6457491561938485e-17 1.1794073895021007e-05  0.
-6.050007332976339e-16 1.1794073894930986e-05  0.
-8.918186246837007e-15 1.1794073893520898e-05  0.
-1.1583598275354626e-13 1.1794073873984269e-05  0.
-1.3137323587761686e-12 1.1794073636620987e-05  0.
-1.2874508455343986e-11 1.1794071132947693e-05  0.
-1.0771644123185048e-10 1.1794048471574308e-05  0.
-7.588098972041516e-10 1.1793874858500922e-05  0.
-4.430232946363075e-09 1.1792766926745016e-05  0.
-2.1069276103050353e-08 1.1786986754447685e-05  0.
-8.023683813371294e-08 1.1762844907347552e-05  0.
-2.4169010136476985e-07 1.1683812322180919e-05  0.
-5.769124487059695e-07 1.1484142162873157e-05  0.
-1.1207759993478777e-06 1.1093744063289277e-05  0.
-1.8538557889340023e-06 1.0492564105872705e-05  0.
-2.7337175115463937e-06 9.831005621243516e-06  0.
-3.918168869750095e-06 9.714435349111831e-06  0.
-5.5623752701115066e-06 1.1030114387829632e-05  0.
-7.05297592087276e-06 1.2828466776374277e-05  0.
0.0 1.4358566924713333e-05  0.
-2.447398604592805e-18 1.435856692471309e-05  0.
-4.582253747632443e-17 1.4358566924708296e-05  0.
-7.696465271694647e-16 1.4358566924622922e-05  0.
-1.149643364159671e-14 1.435856692326843e-05  0.
-1.5152797061903585e-13 1.4358566904232568e-05  0.
-1.7466627261338236e-12 1.4358566669278135e-05  0.
-1.742800687361581e-11 1.4358564147276583e-05  0.
-1.4873892013413214e-10 1.4358540874816249e-05  0.
-1.0707635988261875e-09 1.4358358748317715e-05  0.
-6.3976081877360255e-09 1.4357169568087566e-05  0.
-3.114212564052674e-08 1.4350816015649991e-05  0.
-1.2105532385974064e-07 1.4323676967256083e-05  0.
-3.68954104919082e-07 1.4233437853741842e-05  0.
-8.748635169795416e-07 1.400620835170528e-05  0.
-1.6473832649507292e-06 1.3582546353251374e-05  0.
-2.6249405084914198e-06 1.3009879753532844e-05  0.
-3.820717779441146e-06 1.2558824675989783e-05  0.
-5.331366733832493e-06 1.2930248424427115e-05  0.
-7.049518546865026e-06 1.4221482594318221e-05  0.
-8.359513076316253e-06 1.4927159601874581e-05  0.
0.0 1.6670318631581573e-05  0.
-2.8513550752626383e-18 1.6670318631581387e-05  0.
-5.3896776301050615e-17 1.6670318631577643e-05  0.
-9.129690423825742e-16 1.6670318631510402e-05  0.
-1.3764757855526365e-14 1.6670318630433725e-05  0.
-1.8330079725168564e-13 1.667031861515193e-05  0.
-2.137100985589159e-12 1.6670318424453053e-05  0.
-2.159421842270732e-11 1.6670316352499773e-05  0.
-1.8687601802224244e-10 1.6670296973644126e-05  0.
-1.3659099518140324e-09 1.6670143058983464e-05  0.
-8.294657517242293e-09 1.6669121768951963e-05  0.
-4.10487550070595e-08 1.6663572417313107e-05  0.
-1.619592916126791e-07 1.6639475974567263e-05  0.
-4.981810911745897e-07 1.6558319500620066e-05  0.
-1.1764920730951254e-06 1.6354009614602557e-05  0.
-2.1598789674847e-06 1.5987927851247712e-05  0.
-3.3207324522791908e-06 1.556713573523613e-05  0.
-4.768354518648838e-06 1.542512062100837e-05  0.
-6.413834239024292e-06 1.5957716094902674e-05  0.
-7.959020675872338e-06 1.6641186255171942e-05  0.
-9.236093021010629e-06 1.677017007197569e-05  0.
0.0 1.906509541870374e-05  0.
-3.1312170911772523e-18 1.9065095418703623e-05  0.
-5.939310142844263e-17 1.9065095418701553e-05  0.
-1.0110977370818495e-15 1.9065095418664355e-05  0.
-1.5328790444860285e-14 1.9065095418065855e-05  0.
-2.0537780423175332e-13 1.9065095409520892e-05  0.
-2.4107183192999637e-12 1.9065095302196695e-05  0.
-2.4541617489025624e-11 1.9065094127695125e-05  0.
-2.1414045264590204e-10 1.906508305530019e-05  0.
-1.5793599672080275e-09 1.906499433959156e-05  0.
-9.68393396878195e-09 1.9064400072496293e-05  0.
-4.840027432751902e-08 1.906113833119825e-05  0.
-1.9271089390541252e-07 1.9046832611023327e-05  0.
-5.963735105841125e-07 1.899825377894233e-05  0.
-1.4062692223318774e-06 1.887574576384191e-05  0.
-2.5419059857742417e-06 1.866190957574214e-05  0.
-3.7958983798050604e-06 1.845380719272263e-05  0.
-5.318609474027515e-06 1.84889475778152e-05  0.
-7.005869298373245e-06 1.8777603163401213e-05  0.
-8.299662787948857e-06 1.9005270501630954e-05  0.
-9.612780140885354e-06 1.9299701566295417e-05  0.
0.0 2.144999999999999e-05  0.
-3.2381708975861736e-18 2.144999999999999e-05  0.
-6.134723998682504e-17 2.144999999999999e-05  0.
-1.046058204635965e-15 2.144999999999999e-05  0.
-1.5887631613752852e-14 2.144999999999999e-05  0.
-2.1329648112258195e-13 2.144999999999999e-05  0.
-2.5092734487661667e-12 2.144999999999999e-05  0.
-2.56082129312207e-11 2.144999999999999e-05  0.
-2.2405757582338683e-10 2.144999999999999e-05  0.
-1.6574427463686875e-09 2.144999999999999e-05  0.
-1.0195277866319112e-08 2.144999999999999e-05  0.
-5.112390472585328e-08 2.144999999999999e-05  0.
-2.0417913411457177e-07 2.144999999999999e-05  0.
-6.332050642076054e-07 2.144999999999999e-05  0.
-1.4927583035784458e-06 2.144999999999999e-05  0.
-2.68449413494065e-06 2.144999999999999e-05  0.
-3.960633195428275e-06 2.144999999999999e-05  0.
-5.46998100517776e-06 2.144999999999999e-05  0.
-7.191832753341624e-06 2.144999999999999e-05  0.
-8.387878615122067e-06 2.144999999999999e-05  0.
-9.730731049606059e-06 2.144999999999999e-05  0.
</DataArray>
<DataArray type="Float64" Name="sigma_xx" NumberOfComponents="1" format="ascii" >
0.0013472778448431195 
0.0013472778448431195 
0.0013472778448431195 
0.0013472778448431195 
0.0013472778448431195 
0.0013472778448431195 
0.001347122413619672 
0.0013465117909561282 
0.0013453016478592868 
0.0013431811218822527 
0.0013390621944608934 
0.0013306356017039884 
0.0013151368882802212 
0.0012891132605830076 
0.0012469802967984829 
0.0011840195490719903 
0.0010941358929983376 
0.000972610880722868 
0.0008159362074877661 
0.0005647038392453394 
0.0004014788501649489 
0.01245206160405132 
0.01245206160405132 
0.01245206160405132 
0.01245206160405132 
0.012451983888439596 
0.012451761843834671 
0.012451006892177926 
0.012448359010264195 
0.012441625507619843 
0.012426049078584352 
0.012392326054211363 
0.012324047338196916 
0.012195422449678969 
0.011970779922876314 
0.011602996341508739 
0.011038303604493645 
0.010222256374703417 
0.009109235588056205 
0.00765860708185073 
0.0053939408495295976 
0.003944566895341948 
0.18497201548228753 
0.18497201548228753 
0.18497201548228753 
0.18497194331779093 
0.18497142151296936 
0.18496918441357474 
0.18496109088772522 
0.18493480635761722 
0.1848608932597528 
0.18467528617449597 
0.18425107550790182 
0.1833611484869379 
0.1816379935348777 
0.1785445735702495 
0.17337071223089134 
0.16527694213230854 
0.1533984550494693 
0.13699242296105746 
0.11536873123496601 
0.0812890088575102 
0.05941787062369028 
2.417282396471875 
2.4172824741874868 
2.41728240202299 
2.4172816581735637 
2.4172777335351716 
2.417260253073649 
2.417190475556551 
2.4169502288451374 
2.4162293665863634 
2.414307642695234 
2.4096925066441335 
2.399615101067453 
2.379443125866131 
2.3421939832068963 
2.2783968212092267 
2.1766096758302202 
2.024770129338548 
1.81223046569201 
1.5287174193190363 
1.076186079140839 
0.7845527671967996 
27.632714605374524 
27.632714683090136 
27.63271424455204 
27.632710924985197 
27.632690108303485 
27.632578825098612 
27.6320841319233 
27.630223620178633 
27.62420357460548 
27.607095021142662 
27.563798060681314 
27.465015417504894 
27.259967927406585 
26.86964515330458 
26.18406849119736 
25.067143966106535 
23.372203333815726 
20.966160346747024 
17.715242317528627 
12.45446333841826 
9.048843607750708 
273.4699667161776 
273.46996664401314 
273.46996533395 
273.4699525053229 
273.46985806975243 
273.46927898297395 
273.4663713421791 
273.45429854941364 
273.41175431461187 
273.2821926532124 
272.9347990226837 
272.10392654075645 
270.31019660395106 
266.7840375891738 
260.4235357139827 
249.83341782858207 
233.4750694971132 
209.91518040747167 
177.64560406030577 
124.64392246391836 
90.16807369643936 
2314.778767420477 
2314.7787670596545 
2314.7787626132113 
2314.77871785457 
2314.7783502541756 
2314.7758342834104 
2314.7616829977114 
2314.696227928569 
2314.444014323013 
2313.6152382863256 
2311.2524330237684 
2305.305919264588 
2291.929338385511 
2264.7296235051012 
2214.31055140997 
2128.481943677873 
1993.524750035224 
1796.3119125774524 
1522.3050360224638 
1065.0258245953332 
766.0514125151781 
16517.206392041568 
16517.206390881383 
16517.20637776965 
16517.206239913256 
16517.205003446772 
16517.19571194587 
16517.137894417327 
16516.841763791752 
16515.588378346318 
16511.137014613145 
16497.589836808595 
16461.66695326023 
16377.336823367168 
16199.965948515688 
15862.13398912239 
15274.629081007957 
14335.04698486465 
12943.07614804479 
10980.580474689856 
7649.682689439549 
5460.35796512023 
97627.10389725758 
97627.10389449866 
97627.10386096992 
97627.10348283351 
97627.09983515136 
97627.07014857038 
97626.86856106258 
97625.73705648366 
97620.50311308831 
97600.39834686425 
97535.14126816796 
97352.74436285521 
96906.53918852651 
95937.10497795834 
94044.53060293524 
90690.65914626414 
85250.42363187461 
77097.97768377932 
65439.162079178306 
45304.48266133468 
31998.915343717228 
467677.66103947826 
467677.6610336718 
467677.660955451 
467677.6600224695 
467677.6504595857 
467677.5671569209 
467676.9575914284 
467673.2521837533 
467654.67852642445 
467577.87243120733 
467312.824897173 
466534.9033646986 
464559.3882208641 
460147.92858014564 
451367.9004095632 
435607.7807455226 
409832.1086516364 
370959.75204118877 
314670.60559988423 
215812.9772710459 
150157.4979977493 
1765621.2037580272 
1765621.2037467863 
1765621.2035798528 
1765621.2014934607 
1765621.1789785374 
1765620.9711945031 
1765619.3508968735 
1765608.8031912704 
1765552.0715895512 
1765301.2517301994 
1764385.736692358 
1761584.130632928 
1754252.8573135536 
1737580.7154605596 
1704089.7249225136 
1643881.0360151902 
1545723.5464229858 
1398252.2563513145 
1182984.8741933876 
799588.5112338534 
543997.8691628765 
5061260.259476551 
5061260.259455839 
5061260.2591287065 
5061260.2548751375 
5061260.206911081 
5061259.742087197 
5061255.9167687185 
5061229.5201273225 
5061078.650608084 
5060371.151420072 
5057655.711909251 
5049050.480156382 
5026105.031236909 
4973616.804236423 
4868927.980280179 
4683805.479069765 
4389104.014377441 
3956227.204175112 
3325291.5216830284 
2194424.5621048314 
1439872.070132813 
10495349.250083704 
10495349.25004739 
10495349.249456402 
10495349.24151664 
10495349.148590961 
10495348.210160896 
10495340.128971647 
10495281.554535134 
10494929.032387858 
10493189.676843874 
10486213.867739983 
10463458.160296194 
10402252.084742898 
10263596.28435726 
9994424.645059971 
9538634.915094472 
8852457.891275506 
7899486.846478018 
6538032.112364256 
4130791.4731646916 
2536925.6537264716 
14957998.70056694 
14957998.700507592 
14957998.699521458 
14957998.685902044 
14957998.521446276 
14957996.802394558 
14957981.427440956 
14957865.310487991 
14957135.506825231 
14953375.802569432 
14937715.816526629 
14885388.662111998 
14744506.73591134 
14433218.22370674 
13857155.10065717 
12952707.605262695 
11719350.233870551 
10181294.833656784 
8097713.092925846 
4657305.745421319 
2457191.7732244623 
14675064.868899953 
14675064.868809873 
14675064.867284587 
14675064.845718972 
14675064.578462427 
14675061.703755032 
14675035.172750238 
14674827.856815293 
14673476.984415403 
14666260.882657565 
14635218.740890766 
14529361.180019027 
14245335.819963457 
13640614.498902189 
12597159.109537132 
11122478.628552785 
9392244.565064706 
7556870.784866454 
5303952.381192529 
2304973.1416772464 
620987.4755264325 
12593522.240151685 
12593522.240024187 
12593522.237828137 
12593522.206169723 
12593521.805396475 
12593517.392402982 
12593475.60538402 
12593139.849168655 
12590886.316469593 
12578481.887163557 
12523652.849160489 
12333396.292138215 
11825450.750010699 
10790956.092042439 
9163860.762597784 
7156704.457736693 
5225553.424703076 
3515939.2231202265 
1598522.3894088548 
46684.42644070159 
-418686.38925517723 
13260241.975271476 
13260241.975102395 
13260241.972151134 
13260241.928948376 
13260241.372671174 
13260235.132098809 
13260174.820304764 
13259679.35179012 
13256274.394165892 
13237075.334469654 
13150317.012594387 
12844853.972220095 
12033315.835189514 
10455198.483223714 
8238755.733545367 
5946056.782307444 
4161104.053201221 
2768147.256654178 
1074792.9541138655 
67687.41746630287 
68156.997416066 
13686863.5595993 
13686863.559389086 
13686863.555681575 
13686863.500768583 
13686862.784511983 
13686854.634396307 
13686774.635334346 
13686106.25893547 
13681429.69824646 
13654570.32011557 
13531101.280650103 
13091320.519446636 
11927469.457470227 
9757862.678416012 
7068533.033640078 
4861333.641890878 
3363194.1664737435 
2083516.1119597186 
454716.3134681431 
-547432.9332609512 
-565036.8264379995 
13209301.408224024 
13209301.40797837 
13209301.403619157 
13209301.338510346 
13209300.481499122 
13209290.632025775 
13209192.892126288 
13208366.563106218 
13202511.215291537 
13168441.185804037 
13009903.108418275 
12440392.900160398 
10936997.16535953 
8225575.631075865 
5238930.743714739 
3425096.3556246823 
2173540.937835561 
548140.6817296618 
-604693.0161786389 
-749834.258723394 
-591126.3970112568 
13415091.463561408 
13415091.463291707 
13415091.458489358 
13415091.386405133 
13415090.432430506 
13415079.403443241 
13414969.24769001 
13414031.377723645 
13407335.507144492 