<?xml version="1.0"?>
<VTKFile type="UnstructuredGrid" version="0.1" byte_order="LittleEndian" compressor="vtkZLibDataCompressor">
<UnstructuredGrid>
<Piece NumberOfPoints="441" NumberOfCells="400">
<PointData>
<DataArray type="Float64" Name="displacement" NumberOfComponents="3" format="ascii" >
0.0 1.233895331158745e-35  0.
1.3865719946930282e-35 1.4679095738481167e-36  0.
1.946260344041153e-35 4.259681439381528e-36  0.
1.8425987641547603e-35 -5.407506623065369e-36  0.
8.430703183962526e-36 -4.532004076786534e-36  0.
-7.027568562832067e-36 -1.0931819470717531e-35  0.
-6.039061910289789e-35 -4.2367173864013606e-35  0.
-3.208513050881427e-34 -2.1751805032962154e-34  0.
-2.4377037104619786e-33 -1.8972727108269605e-33  0.
-1.4367004177608718e-32 -1.0024230318072782e-32  0.
-4.8788087539009676e-32 -2.4455805318112887e-32  0.
-1.1476840085586316e-31 -4.125644064695755e-32  0.
-2.0476601182676897e-31 -4.930798850804407e-32  0.
-2.98164186520838e-31 -4.3547210595196774e-32  0.
-3.7106701410826074e-31 -2.9413403898464173e-32  0.
-4.26627467520565e-31 -2.652710041745016e-32  0.
-4.6761831490705065e-31 -1.4108283328970038e-32  0.
-4.834620059678942e-31 -2.32152248044118e-33  0.
-4.3542815600097565e-31 5.376821591347455e-32  0.
-2.7231575637128075e-31 8.637162367998828e-32  0.
-1.6178568026717086e-31 2.059765562315376e-31  0.
0.0 -3.622045910436368e-34  0.
8.473912593704272e-33 8.695190965550958e-33  0.
1.239137126589736e-32 -4.4603246877652547e-33  0.
8.184966103765002e-33 2.6134995460059766e-35  0.
4.548778818531075e-33 -3.589581144266857e-33  0.
-6.168239338047578e-34 -1.6048167608669637e-33  0.
-5.5896414077294566e-33 -3.4209393003257835e-33  0.
-2.986489581833054e-32 -2.1115851031816405e-32  0.
-1.551142760365359e-31 -1.06321716006548e-31  0.
-1.032206333545723e-30 -7.820459421774299e-31  0.
-7.298341441304547e-30 -5.532653931077753e-30  0.
-2.84768704446488e-29 -1.5477051030923753e-29  0.
-5.942011585891315e-29 -1.6363425024573202e-29  0.
-9.368244101172587e-29 -1.7025533617111318e-29  0.
-1.1005720297340335e-28 5.542456781939677e-31  0.
-1.1228979145331874e-28 -3.640153682784587e-30  0.
-1.2369815639781112e-28 -7.42543356869891e-30  0.
-1.390774758130067e-28 -8.0171451062456e-30  0.
-1.4073934228456774e-28 7.935770884340151e-30  0.
-9.407456956966145e-29 2.923103068392087e-29  0.
-5.649534098743214e-29 7.33487353248072e-29  0.
0.0 1.6705439929183648e-29  0.
1.1870110449607441e-29 -5.3816622681080155e-30  0.
9.627613696585805e-30 4.166385452532426e-30  0.
7.900589375041627e-30 -6.476864947144795e-30  0.
6.844673697388526e-31 -6.255391622121974e-31  0.
-1.146722313450954e-31 -1.860195056570304e-31  0.
-1.2645412894278132e-30 -9.743528690837524e-31  0.
-4.746294574547466e-30 -2.556129759032734e-30  0.
-2.6606446372093696e-29 -1.9556476290328482e-29  0.
-1.4085041171975968e-28 -9.576516008299636e-29  0.
-6.73160856158612e-28 -4.522120683940754e-28  0.
-6.318772719272991e-27 -5.176863192202035e-27  0.
-2.7948880739275855e-26 -1.7943853970153365e-26  0.
-5.320341243264757e-26 -4.733036841183065e-27  0.
-5.899130461398676e-26 -1.042064073274197e-27  0.
-4.765954052956882e-26 9.773833929522476e-27  0.
-4.861324820741723e-26 -1.0325439204991853e-26  0.
-7.347060560297387e-26 -1.3460456318665552e-26  0.
-8.959180773140031e-26 -9.343892487576642e-28  0.
-6.537476924270935e-26 1.6717618617652057e-26  0.
-4.4530949375754185e-26 5.539173093982935e-26  0.
0.0 4.8732501978081974e-27  0.
1.3966767224321294e-26 5.9251002460820625e-27  0.
8.133260762041282e-27 -7.90662342918846e-27  0.
4.679055001140176e-28 -4.330156463727039e-28  0.
2.119323211357137e-29 -2.154718436399111e-29  0.
-1.1574936269300042e-29 -1.2898129583144055e-29  0.
-1.1498397849592817e-28 -9.285338076245338e-29  0.
-1.0662129309914003e-27 -8.689034261293225e-28  0.
-3.604351696778696e-27 -1.7113369760861515e-27  0.
-1.972759615366438e-26 -1.4656069151368508e-26  0.
-1.0087589736558607e-25 -7.087161147806349e-26  0.
-3.3763047919059716e-25 -1.7118959207713336e-25  0.
-3.692809769261145e-24 -3.384760374294517e-24  0.
-2.1604424548721227e-23 -9.459848161270605e-24  0.
-2.4367103192835083e-23 7.120037858538146e-24  0.
-1.03195292737562e-23 2.0815315636402395e-24  0.
-1.2440306625347505e-23 -3.946198138290615e-24  0.
-2.8597517322694466e-23 -8.411001227685073e-24  0.
-4.1981776480244184e-23 -2.09440430426748e-24  0.
-3.5319692056134114e-23 2.617027881304042e-24  0.
-3.430253814578489e-23 3.1474035255719805e-23  0.
0.0 6.397386412810087e-20  0.
5.074583044686691e-24 6.413238224496182e-20  0.
1.6431887904388122e-25 6.413525911761149e-20  0.
5.664779005155264e-27 6.413543241641178e-20  0.
2.7963910033177713e-28 6.413543798173993e-20  0.
-5.659801246237019e-28 6.41354377510728e-20  0.
-6.331015399009595e-27 6.413543295647904e-20  0.
-5.881114021662811e-26 6.413538934614675e-20  0.
-9.613301898079588e-25 6.413466501528086e-20  0.
-2.779700013537103e-24 6.413451665506784e-20  0.
-1.181571829651951e-23 6.412769101605824e-20  0.
-8.001762252192185e-23 6.408855327023785e-20  0.
-1.635368123326109e-22 6.39636051643831e-20  0.
-1.1045166091666313e-21 6.305284466249353e-20  0.
-1.7101179417258044e-21 5.723011509307798e-20  0.
-1.2492088127541298e-21 5.499918390779148e-20  0.
-1.9197620594987764e-21 5.302729133826508e-20  0.
-3.469006841788715e-21 4.7858636652698164e-20  0.
-4.646784710454991e-21 3.9666487359553495e-20  0.
-5.6909569705760745e-21 2.923395771260979e-20  0.
-1.5082739492571586e-20 2.925517038029587e-20  0.
0.0 2.5097930611605908e-18  0.
-3.8431811554820394e-23 2.5102324907639863e-18  0.
7.990472293467407e-25 2.5102075780841026e-18  0.
1.331430977251167e-26 2.510208635264111e-18  0.
-7.62062698136271e-28 2.510208660748495e-18  0.
-2.4051898791619036e-27 2.510208657680964e-18  0.
-1.8756192164585447e-25 2.5102084680297563e-18  0.
-2.572462580792226e-24 2.5102063032739574e-18  0.
-2.357217895685523e-23 2.5101886207053984e-18  0.
-3.169322702663119e-22 2.5095893650415552e-18  0.
-1.1172196423951597e-21 2.5085821473768557e-18  0.
-3.2852163783072614e-21 2.5037681643440344e-18  0.
-7.934318404018455e-21 2.4913385715319937e-18  0.
-1.6894380001297918e-20 2.4715141405834554e-18  0.
-3.299898530730905e-20 2.4287824337914637e-18  0.
-5.428732769065079e-20 2.347992250189077e-18  0.
-8.850824722647614e-20 2.2065033041584887e-18  0.
-1.2601607595885762e-19 2.0079722038988282e-18  0.
-1.7341688664124772e-19 1.7206516438609764e-18  0.
-2.2626529628714106e-19 1.3692906485255007e-18  0.
-7.257653297984503e-19 1.392027182270392e-18  0.
0.0 8.091683801840487e-17  0.
-6.119932487577769e-23 8.092010288166904e-17  0.
-4.8466722122125045e-24 8.092029700509199e-17  0.
-4.4330347117399645e-26 8.092029378750682e-17  0.
-8.626770850510786e-27 8.092029381708725e-17  0.
-4.3292691343795766e-26 8.092029375952291e-17  0.
-1.2542579628310716e-24 8.092029228758452e-17  0.
-1.0517386389514835e-22 8.092019660076635e-17  0.
-9.856892402719116e-22 8.091912515688272e-17  0.
-7.377833397369317e-21 8.091198955404545e-17  0.
-2.871879998447717e-20 8.08785209744988e-17  0.
-8.004898415205907e-20 8.07783737138772e-17  0.
-2.0487949970489828e-19 8.051938302315533e-17  0.
-4.593807852797897e-19 7.990275404766266e-17  0.
-9.215423228228696e-19 7.861312655934491e-17  0.
-1.6570314340454593e-18 7.620430034801685e-17  0.
-2.7160060463455098e-18 7.210122362381177e-17  0.
-4.067069976945267e-18 6.573866998711043e-17  0.
-5.619028320316682e-18 5.666682655830886e-17  0.
-7.548368482276942e-18 4.5067038913673595e-17  0.
-2.423172137866148e-17 4.5958809888284715e-17  0.
0.0 2.2648290253991576e-15  0.
-8.263230880499436e-22 2.264828182538281e-15  0.
7.577608976974766e-24 2.264827352557856e-15  0.
-5.7883635612953895e-25 2.2648273478448603e-15  0.
1.1981615691505239e-26 2.2648273472092407e-15  0.
-1.2880045012557415e-25 2.264827346991495e-15  0.
-2.2262530904067165e-23 2.2648273235062637e-15  0.
-8.516966371565408e-22 2.264826359562824e-15  0.
-1.9354404669551863e-20 2.2648097065428718e-15  0.
-1.1500382190860834e-19 2.264692875972426e-15  0.
-4.909867038884544e-19 2.264154328840413e-15  0.
-1.6098322126579736e-18 2.262261340043732e-15  0.
-4.510440252192894e-18 2.256691018391974e-15  0.
-1.0829443642384827e-17 2.2426313744091046e-15  0.
-2.2908036245378728e-17 2.211566246678966e-15  0.
-4.3086968979317445e-17 2.1505585098922904e-15  0.
-7.311473735256197e-17 2.0428254031071063e-15  0.
-1.126023581391974e-16 1.870268425007008e-15  0.
-1.5881706021836712e-16 1.6182879255444295e-15  0.
-2.1718689771795566e-16 1.2920141141412789e-15  0.
-6.981025424786976e-16 1.3222090668803947e-15  0.
0.0 5.440668301731935e-14  0.
-4.267063632812275e-22 5.4406674118458456e-14  0.
-3.0397274916940904e-23 5.44066758069757e-14  0.
1.3667597244905909e-24 5.4406675790408314e-14  0.
3.643641205290243e-26 5.4406675790401675e-14  0.
-9.349379597475659e-25 5.440667578917222e-14  0.
-7.268459402456735e-23 5.440667565431826e-14  0.
-9.411647027249417e-21 5.440666686708223e-14  0.
-1.4770219502231033e-19 5.440655105387873e-14  0.
-1.2778394846082e-18 5.4405371617310195e-14  0.
-6.574968929149328e-18 5.439865521894381e-14  0.
-2.5949834033589925e-17 5.437013695664839e-14  0.
-8.086341295691649e-17 5.4275004916815716e-14  0.
-2.128263541442865e-16 5.401069850126705e-14  0.
-4.796546954591528e-16 5.338303310208384e-14  0.
-9.523650708638293e-16 5.207802139711234e-14  0.
-1.6799342335364726e-15 4.9669684774955406e-14  0.
-2.670434516819486e-15 4.567808803603926e-14  0.
-3.853604004911051e-15 3.969624637182548e-14  0.
-5.379333800446476e-15 3.1826934637917664e-14  0.
-1.7296834720324564e-14 3.2704474724569396e-14  0.
0.0 1.1075274523492539e-12  0.
-9.244733163701137e-22 1.1075274578798521e-12  0.
7.381700225899069e-23 1.1075274561648234e-12  0.
1.654328462637705e-24 1.1075274561697328e-12  0.
3.974422090048149e-26 1.1075274561724629e-12  0.
-3.8548221059924144e-24 1.1075274561663564e-12  0.
-8.581782169897712e-22 1.1075274551995373e-12  0.
-4.4761416340642526e-20 1.1075274274670405e-12  0.
-7.317618118177492e-19 1.1075269210867657e-12  0.
-8.447042612607994e-18 1.1075203439620849e-12  0.
-6.666507654153163e-17 1.107459793218678e-12  0.
-3.164727470544373e-16 1.1071377069035066e-12  0.
-1.1667022502586892e-15 1.1058564806780469e-12  0.
-3.3914055004419913e-15 1.1018563590019875e-12  0.
-8.341497822156852e-15 1.0914436098075167e-12  0.
-1.7551964235952542e-14 1.068287192726962e-12  0.
-3.253113409268318e-14 1.0232451212288148e-12  0.
-5.349032530717192e-14 9.455792143360607e-13  0.
-7.936647746628527e-14 8.256875543354441e-13  0.
-1.1330387082645056e-13 6.651912451634316e-13  0.
-3.641643848614891e-13 6.869316274407569e-13  0.
0.0 1.8816290595883307e-11  0.
-3.322895687779934e-22 1.8816290605163388e-11  0.
1.7596048232078442e-23 1.8816290606320617e-11  0.
-1.0399552209615517e-24 1.8816290606455667e-11  0.
-6.852354743650979e-26 1.8816290606458736e-11  0.
-1.5777190495040405e-23 1.8816290606431553e-11  0.
-4.51056358862033e-21 1.881629060333146e-11  0.
-1.5133989890202532e-19 1.8816290522011435e-11  0.
-2.791607272338673e-18 1.8816288857937946e-11  0.
-3.9467202924665693e-17 1.881626235941053e-11  0.
-4.108388693380302e-16 1.8815947735840298e-11  0.
-2.909552571930237e-15 1.8813332537560936e-11  0.
-1.2698188316375531e-14 1.880048920417232e-11  0.
-4.333088621358565e-14 1.8753018364356875e-11  0.
-1.16746949265327e-13 1.8615086122248018e-11  0.
-2.6657524257527604e-13 1.8280813975745457e-11  0.
-5.201704796627549e-13 1.7589202597515414e-11  0.
-8.939518955877642e-13 1.6339075112996563e-11  0.
-1.364948683828108e-12 1.4342599075935904e-11  0.
-2.0040610648875143e-12 1.1619080381127582e-11  0.
-6.417710592716546e-12 1.2070640118811424e-11  0.
0.0 2.619600540879139e-10  0.
1.7255518939935611e-22 2.619600540740949e-10  0.
-2.0973035745948958e-22 2.6196005407488935e-10  0.
-4.5423005809175825e-25 2.619600540747545e-10  0.
-2.4686556656541225e-25 2.6196005407475535e-10  0.
-3.947821202352129e-23 2.619600540746649e-10  0.
-1.4518455674887026e-20 2.6196005406724455e-10  0.
-4.25024492762556e-19 2.6196005385911055e-10  0.
-8.674280529291288e-18 2.619600493676392e-10  0.
-1.422389434076797e-16 2.619599672160428e-10  0.
-1.7985901166716312e-15 2.619587913204991e-10  0.
-1.6619291221434847e-14 2.6194630900779294e-10  0.
-1.0451235431118361e-13 2.61853628240002e-10  0.
-4.16095608317276e-13 2.6143651918175173e-10  0.
-1.3031033759862276e-12 2.600153264340045e-10  0.
-3.2285441288123695e-12 2.562012672233516e-10  0.
-6.787873799500672e-12 2.4766337540704156e-10  0.
-1.2186924466570042e-11 2.313587972269981e-10  0.
-1.933800973984903e-11 2.042631451028259e-10  0.
-2.923059304268111e-11 1.665499318467246e-10  0.
-9.308979691281311e-11 1.7434433430775332e-10  0.
0.0 2.922383805035816e-09  0.
-6.062844193105375e-21 2.922383805026905e-09  0.
5.24628799411701e-22 2.922383805024181e-09  0.
-1.237348623379624e-24 2.92238380502464e-09  0.
-6.184108955518777e-25 2.922383805024639e-09  0.
-1.3666267418086601e-22 2.9223838050242834e-09  0.
-3.7381099175247495e-20 2.922383805007928e-09  0.
-1.0223924688991163e-18 2.922383804590593e-09  0.
-2.2771403681504515e-17 2.922383794388132e-09  0.
-4.172219909123297e-16 2.9223835874566033e-09  0.
-6.079199967937343e-15 2.922380207676282e-09  0.
-6.776522459973805e-14 2.9223372627581013e-09  0.
-5.487425540379944e-13 2.921934560762651e-09  0.
-3.025162882414294e-12 2.9192983271089697e-09  0.
-1.0884934699573177e-11 2.9085284133018778e-09  0.
-3.095089285229937e-11 2.8750376765698504e-09  0.
-6.98314102252717e-11 2.7928113085371574e-09  0.
-1.3385284345986688e-10 2.624503140210634e-09  0.
-2.2011043011209285e-10 2.331793324215943e-09  0.
-3.4609096496311855e-10 1.916095115103814e-09  0.
-1.0868262941550021e-09 2.024941753969027e-09  0.
0.0 2.5408386791857362e-08  0.
-5.805583767657912e-21 2.5408386791860678e-08  0.
4.825144195938491e-22 2.5408386791861237e-08  0.
-9.87606273682493e-24 2.5408386791860638e-08  0.
3.4183855289687347e-25 2.5408386791860628e-08  0.
-6.886273122391934e-22 2.5408386791860198e-08  0.
-7.644847918288258e-20 2.540838679183726e-08  0.
-2.1574502745625077e-18 2.5408386791080616e-08  0.
-5.1630798268392934e-17 2.5408386771289305e-08  0.
-1.030303064210383e-15 2.5408386336236973e-08  0.
-1.6700921116360867e-14 2.5408378480344248e-08  0.
-2.134651960706751e-13 2.5408265091315363e-08  0.
-2.0681867788368967e-12 2.5407002516224208e-08  0.
-1.4447502267080417e-11 2.5396695893739996e-08  0.
-6.874584384509683e-11 2.5338176389297082e-08  0.
-2.2096592075863992e-10 2.5123767807870368e-08  0.
-5.626120647071404e-10 2.452317730254548e-08  0.
-1.142451423899715e-09 2.319135587187966e-08  0.
-1.9844474575170685e-09 2.074417053167563e-08  0.
-3.2379259858837027e-09 1.7207711658228613e-08  0.
-9.96762815109954e-09 1.8423285543849502e-08  0.
0.0 1.6624252638511765e-07  0.
-1.0999155435970002e-22 1.6624252638512745e-07  0.
1.420087288878787e-22 1.6624252638512353e-07  0.
1.1650813146015623e-23 1.6624252638512432e-07  0.
-3.0371338334625218e-24 1.662425263851243e-07  0.
-1.553209640898679e-21 1.662425263851243e-07  0.
-1.3803223022386956e-19 1.6624252638508385e-07  0.
-4.0467087321883445e-18 1.6624252638389433e-07  0.
-1.0269779346064662e-16 1.662425263507145e-07  0.
-2.1905141065974854e-15 1.662425255740011e-07  0.
-3.853096034812446e-14 1.6624251043083943e-07  0.
-5.454282041397869e-13 1.662422698930854e-07  0.
-6.023854022217089e-12 1.6623924323722422e-07  0.
-4.98417996183098e-11 1.6621018530657178e-07  0.
-2.944473995655714e-10 1.6600751198539833e-07  0.
-1.1865512204943302e-09 1.650301943483866e-07  0.
-3.3565081851669276e-09 1.6187041156626097e-07  0.
-7.519138872547132e-09 1.5404434487680478e-07  0.
-1.3662413634576268e-08 1.387745508468439e-07  0.
-2.350535891704078e-08 1.1650932779380121e-07  0.
-6.93527032388968e-08 1.2691240788012783e-07  0.
0.0 7.828757778782373e-07  0.
1.3736943492064729e-21 7.828757778782323e-07  0.
7.680113448302946e-22 7.828757778782372e-07  0.
5.757397708578031e-23 7.82875777878236e-07  0.
-9.017133622813795e-24 7.82875777878236e-07  0.
-3.451534632333522e-21 7.82875777878234e-07  0.
-2.231217925938036e-19 7.828757778781894e-07  0.
-6.837246629843287e-18 7.828757778765056e-07  0.
-1.8120014663797182e-16 7.828757778282676e-07  0.
-4.071223143833731e-15 7.828757766428801e-07  0.
-7.624500184256147e-14 7.828757521345508e-07  0.
-1.1659168991568612e-12 7.828753335533737e-07  0.
-1.4182842087181304e-11 7.828695689232692e-07  0.
-1.3279610724909883e-10 7.828073958320463e-07  0.
-9.174233917530778e-10 7.823032715796574e-07  0.
-4.467191011134747e-09 7.793726032854575e-07  0.
-1.4896951512289699e-08 7.677014320059018e-07  0.
-3.640506842874688e-08 7.352134091774884e-07  0.
-7.104914650195541e-08 6.669784329099773e-07  0.
-1.2792470724221285e-07 5.690197400025818e-07  0.
-3.528413869642226e-07 6.354347500411393e-07  0.
0.0 2.515927746726758e-06  0.
-2.432816160324097e-21 2.5159277467267517e-06  0.
1.2416708021126792e-21 2.515927746726748e-06  0.
1.0444133449893176e-21 2.515927746726754e-06  0.
8.200691293169982e-23 2.5159277467267542e-06  0.
-6.552272823285436e-21 2.5159277467267513e-06  0.
-3.277687297865755e-19 2.5159277467266895e-06  0.
-1.0423241897468277e-17 2.515927746724662e-06  0.
-2.856392277866666e-16 2.5159277466644232e-06  0.
-6.677949160812563e-15 2.5159277451276954e-06  0.
-1.3115390169983801e-13 2.515927711893608e-06  0.
-2.1248212627323765e-12 2.515927112785855e-06  0.
-2.7764318969524548e-11 2.5159182835806757e-06  0.
-2.84365922744593e-10 2.5158147288476023e-06  0.
-2.2023660617641537e-09 2.514877693247066e-06  0.
-1.2333233398108041e-08 2.508632028771519e-06  0.
-4.7866222460354106e-08 2.4794165160529384e-06  0.
-1.2889464315336468e-07 2.3873271429895793e-06  0.
-2.7082058424531846e-07 2.180919219071972e-06  0.
-5.118233396529427e-07 1.904895367240153e-06  0.
-1.2497015197509008e-06 2.1983758025644573e-06  0.
0.0 5.301085945047369e-06  0.
-5.88468526023663e-21 5.301085945047369e-06  0.
1.1373063450387704e-21 5.301085945047374e-06  0.
1.2914711317175772e-21 5.301085945047373e-06  0.
-1.0952150484374848e-22 5.301085945047372e-06  0.
-8.753632142206934e-21 5.301085945047372e-06  0.
-4.452652146568498e-19 5.301085945047312e-06  0.
-1.4380243713412488e-17 5.3010859450452384e-06  0.
-4.0410790132792793e-16 5.301085944982106e-06  0.
-9.728961017434665e-15 5.301085943325277e-06  0.
-1.9785180763603797e-13 5.301085906287637e-06  0.
-3.3429745706550566e-12 5.301085211079619e-06  0.
-4.598909994660389e-11 5.301074457510412e-06  0.
-5.022832541687413e-10 5.30094023200013e-06  0.
-4.218015467564079e-09 5.299629205556883e-06  0.
-2.6159025949194555e-08 5.2899479957982325e-06  0.
-1.1423006539753082e-07 5.238859306408846e-06  0.
-3.401150826911028e-07 5.05828305684435e-06  0.
-7.441354182935806e-07 4.660534058913222e-06  0.
-1.4792246086043231e-06 4.234489071379731e-06  0.
-2.944589550178183e-06 5.040268106629034e-06  0.
0.0 7.777245182716796e-06  0.
1.4603743051449652e-23 7.777245182716813e-06  0.
8.921216333362224e-22 7.77724518271681e-06  0.
2.026186053672446e-21 7.777245182716815e-06  0.
-2.673073713824217e-22 7.777245182716815e-06  0.
-1.160393432136127e-20 7.777245182716811e-06  0.
-5.484999961799217e-19 7.777245182716766e-06  0.
-1.8040276310879865e-17 7.777245182715041e-06  0.
-5.157424370722763e-16 7.777245182661858e-06  0.
-1.2670179605739494e-14 7.77724518123881e-06  0.
-2.638908077275298e-13 7.777245148683288e-06  0.
-4.588289951634545e-12 7.777244520856344e-06  0.
-6.536152607923002e-11 7.777234473183745e-06  0.
-7.454510623634473e-10 7.777103851224502e-06  0.
-6.612120550844921e-09 7.775755774424324e-06  0.
-4.397142425621716e-08 7.765105974603839e-06  0.
-2.094851132127044e-07 7.70344011222579e-06  0.
-6.830132047973894e-07 7.4640854440482465e-06  0.
-1.542757351388506e-06 6.957554697694849e-06  0.
-2.9444870631043033e-06 6.756956394263395e-06  0.
-4.638924624544889e-06 7.980556318470686e-06  0.
0.0 1.001334357467396e-05  0.
2.2656162660236293e-21 1.001334357467396e-05  0.
1.2886546358481804e-21 1.001334357467396e-05  0.
1.9777306216620207e-21 1.0013343574673952e-05  0.
7.115458549164663e-23 1.0013343574673949e-05  0.
-1.3590220116399716e-20 1.0013343574673949e-05  0.
-6.223377183897431e-19 1.0013343574673922e-05  0.
-2.065033859272267e-17 1.001334357467294e-05  0.
-5.963519726993051e-16 1.0013343574642263e-05  0.
-1.4825253957695596e-14 1.001334357381208e-05  0.
-3.13122970093342e-13 1.001334355457451e-05  0.
-5.535941478359428e-12 1.0013343177597112e-05  0.
-8.047959354735153e-11 1.0013337031792283e-05  0.
-9.412404606151016e-10 1.0013255110847846e-05  0.
-8.62046204061782e-09 1.001238434124367e-05  0.
-5.976520656612117e-08 1.0005195097900935e-05  0.
-3.0097025509373515e-07 9.96129865310052e-06  0.
-1.0499632607432433e-06 9.779737352421985e-06  0.
-2.448515702679706e-06 9.398409664417473e-06  0.
-4.012046820333195e-06 9.548529837207629e-06  0.
-5.3670628912630656e-06 1.047907215544049e-05  0.
0.0 1.2450000000000028e-05  0.
-7.33327870883301e-22 1.2450000000000028e-05  0.
1.5759479622317437e-21 1.2450000000000028e-05  0.
4.695744073691484e-22 1.2450000000000028e-05  0.
5.521167836645063e-22 1.2450000000000028e-05  0.
-1.3551012487659416e-20 1.2450000000000028e-05  0.
-6.500632058045338e-19 1.2450000000000028e-05  0.
-2.1596157022535944e-17 1.2450000000000028e-05  0.
-6.258474479636785e-16 1.2450000000000028e-05  0.
-1.5619345443756813e-14 1.2450000000000028e-05  0.
-3.3141213486704995e-13 1.2450000000000028e-05  0.
-5.891578460959289e-12 1.2450000000000028e-05  0.
-8.621990761855622e-11 1.2450000000000028e-05  0.
-1.0167813891997072e-09 1.2450000000000028e-05  0.
-9.41032148987811e-09 1.2450000000000028e-05  0.
-6.617040388341386e-08 1.2450000000000028e-05  0.
-3.3967282767094603e-07 1.2450000000000028e-05  0.
-1.21572546225266e-06 1.2450000000000028e-05  0.
-2.875758398156834e-06 1.2450000000000028e-05  0.
-4.284983383558846e-06 1.2450000000000028e-05  0.
-5.431541241494151e-06 1.2450000000000028e-05  0.
</DataArray>
<DataArray type="Float64" Name="sigma_xx" NumberOfComponents="1" format="ascii" >
0.0 
0.0 
0.0 
0.0 
0.0 
0.0 
0.0 
0.0 
0.0 
0.0 
0.0 
0.0 
0.0 
0.0 
0.0 
0.0 
0.0 
0.0 
0.0 
0.0 
0.0 
0.0 
0.0 
0.0 
0.0 
0.0 
0.0 
0.0 
0.0 
0.0 
0.0 
0.0 
0.0 
0.0 
0.0 
0.0 
0.0 
0.0 
0.0 
0.0 
0.0 
0.0 
0.0 
0.0 
0.0 
0.0 
0.0 
0.0 
0.0 
0.0 
0.0 
0.0 
0.0 
0.0 
0.0 
0.0 
0.0 
0.0 
0.0 
0.0 
0.0 
0.0 
0.0 
0.0 
0.0 
0.0 
0.0 
0.0 
0.0 
0.0 
0.0 
0.0 
0.0 
0.0 
0.0 
0.0 
0.0 
0.0 
0.0 
0.0 
0.0 
0.0 
0.0 
0.0 
6.838973831690962e-06 
6.838973831690962e-06 
6.838973831690962e-06 
6.838973831690962e-06 
6.838973831690962e-06 
6.838973831690962e-06 
6.838973831690962e-06 
6.838973831690962e-06 
6.838973831690962e-06 
6.838973831690962e-06 
6.838973831690962e-06 
6.838973831690962e-06 
6.838973831690962e-06 
6.838973831690962e-06 
6.611378111642805e-06 
6.300515664747762e-06 
5.911937606128957e-06 
5.295763827461995e-06 
4.5186077102243854e-06 
3.3972824553529773e-06 
2.742250870824135e-06 
0.00022630786133959183 
0.00022630786133959183 
0.00022630786133959183 
0.00022630786133959183 
0.00022630786133959183 
0.00022630786133959183 
0.00022630786133959183 
0.00022630786133959183 
0.00022630786133959183 
0.00022630786133959183 
0.00022615798123126743 
0.00022563062529457048 
0.00022456481119093033 
0.0002223388140265569 
0.00021757595725091497 
0.0002094824314013976 
0.00019687029784165583 
0.00017804091534401317 
0.00015192291868970637 
0.00010930145677434661 
8.171241461241147e-05 
0.006334444080380306 
0.006334444080380306 
0.006334444080380306 
0.006334444080380306 
0.006334444080380306 
0.006334444080380306 
0.006334444080380306 
0.006334444080380306 
0.006334222035775381 
0.006333172875017111 
0.006329631263568556 
0.00631910634929511 
0.006292638632388046 
0.006234712746078229 
0.006119682538496816 
0.005912315081957329 
0.005571648697966223 
0.005056549623461136 
0.004329275826719934 
0.003112859969789382 
0.0023176793817469834 
0.15211214510202348 
0.15211214510202348 
0.15211214510202348 
0.15211214510202348 
0.15211214510202348 
0.15211214510202348 
0.15211214510202348 
0.15211185089292195 
0.15210918635766285 
0.1520950865252501 
0.1520385317643757 
0.15185640522830107 
0.15135875330862797 
0.15018514210041184 
0.14773255396782753 
0.14314094909373404 
0.13534903198220144 
0.12327074361273554 
0.10587309362541927 
0.07620053477097596 
0.056686977334408056 
3.0947354456856138 
3.0947354456856138 
3.0947354456856138 
3.0947354456856138 
3.0947354456856138 
3.0947354456856138 
3.094735373521117 
3.094733608266508 
3.094715339546638 
3.0945752016453545 
3.0938990591700124 
3.091353811823793 
3.083686583860156 
3.0640536274884047 
3.0205769274704855 
2.9352630326329168 
2.7852980144515973 
2.5462336017412204 
2.1940855521318516 
1.5803429120886385 
1.17385333675557 
52.53327595156064 
52.53327595156064 
52.53327595156064 
52.53327595156064 
52.53327595156064 
52.53327595156064 
52.533275513022545 
52.533268785071016 
52.53318005049577 
52.532292471596506 
52.52617945594727 
52.4990521999502 
52.40449394983136 
52.13971758788459 
51.50780926221897 
50.20219247531264 
47.809577324864335 
43.87765235036588 
37.93834114085291 
27.33420101375116 
20.26431632495828 
730.3872410435728 
730.3872409658571 
730.3872408881415 
730.3872408881415 
730.3872408881415 
730.3872409658571 
730.387239805674 
730.3872180786094 
730.3868816588285 
730.3828165550194 
730.3468807007271 
730.1274733195748 
729.240318264601 
726.4008293761391 
719.065922144546 
702.8705901412911 
671.8548748618766 
619.0604596001401 
537.1003039073007 
386.8203857976258 
285.7219440932644 
8130.009024176485 
8130.009024098769 
8130.009024021054 
8130.009024021054 
8130.009024021054 
8130.0090240266045 
8130.009021045655 
8130.008961171328 
8130.007917889202 
8129.993417116397 
8129.839702114557 
8128.653824601703 
8122.320335574026 
8099.227879659884 
8032.103875901805 
7873.658354395904 
7552.893756435084 
6987.22537839924 
6081.62578885074 
4372.449239103958 
3214.8423373068435 
70411.43042096906 
70411.43042096906 
70411.43042096906 
70411.43042096906 
70411.43042096906 
70411.43042075257 
70411.43041414118 
70411.43027092243 
70411.42753697047 
70411.38524164767 
70410.87203220051 
70406.16843373424 
70375.03556276135 
70232.00002387317 
69768.0907582626 
68561.14397262578 
65989.21670238065 
61260.55093514103 
53459.5634109236 
38283.228248150976 
27891.97183744594 
457353.35087502253 
457353.35087502253 
457353.35087502253 
457353.35087502253 
457353.35087502253 
457353.3508745119 
457353.3508620496 
457353.3505598247 
457353.3443686438 
457353.2402574575 
457351.84006998036 
457337.24385330896 
457223.81395367475 
456593.80524357955 
454156.5255780088 
447255.32416101376 
431502.66609607567 
401610.7748438634 
350763.3821350968 
249119.4737710061 
179189.93012704933 
2122028.893342808 
2122028.8933427306 
2122028.8933426524 
2122028.8933426524 
2122028.8933426524 
2122028.893341781 
2122028.893319793 
2122028.892751864 
2122028.8804493826 
2122028.6595767625 
2122025.4433630006 
2121988.4815554055 
2121664.3939481075 
2119583.3508822694 
2110171.5696719643 
2080377.9796411563 
2008726.454853973 
1868761.1014738977 
1626988.5438809246 
1136143.2189448846 
796583.9040190988 
6588592.992898576 
6588592.992898499 
6588592.992898421 
6588592.992898421 
6588592.992898421 
6588592.992897272 
6588592.992861367 
6588592.991903355 
6588592.97022865 
6588592.560676374 
6588586.220424139 
6588507.732374649 
6587754.204996061 
6582353.1033859905 
6554712.471810645 
6457237.2467189785 
6214732.6973199565 
5737683.996912433 
4925181.126381183 
3313902.5924937795 
2206028.073783244 
12681118.07895935 
12681118.07895935 
12681118.07895935 
12681118.07895935 
12681118.07895935 
12681118.078957694 
12681118.078904415 
12681118.077446518 
12681118.043347614 
12681117.373293478 
12681106.505928796 
12680964.23839102 
12679502.51833868 
12668132.148802055 
12604137.47863071 
12356778.141343117 
11719813.212988038 
10534026.112823645 
8614037.627895549 
5271853.516029415 
3107430.3631469375 
14770576.538899878 
14770576.538899954 
14770576.538899956 
14770576.538899878 
14770576.538899878 
14770576.53889757 
14770576.538825631 
14770576.536815405 
14770576.488622278 
14770575.513756033 
14770559.15209253 
14770336.015151508 
14767927.553630548 
14748041.609086428 
14627968.243052475 
14128152.312467914 
12786976.049907187 
10486120.1313757 
7280971.46005557 
3227701.8253565826 
1022473.454541964 
13225489.564603006 
13225489.564603085 
13225489.564603085 
13225489.564603006 
13225489.564603006 
13225489.564600192 
13225489.564511186 
13225489.561989335 
13225489.500485599 
13225488.231217254 
13225466.421073347 
13225160.529663691 
13221745.731753051 
13192376.363944173 
13006127.076998807 
12186843.61003196 
9893326.998611867 
6194648.1993604805 
2498767.423185644 
-68147.99158751592 
-1003618.859402868 
13114338.293943103 
13114338.293943103 
13114338.293943103 
13114338.293943103 
13114338.293943103 
13114338.293940002 
13114338.293838903 
13114338.290952504 
13114338.21984436 
13114336.735017514 
13114310.866385067 
13113942.066121835 
13109743.116450436 
13072756.36791037 
12831248.133805308 
11731495.510257471 
8550546.524807736 
3583635.5887440527 
598630.3035302043 
76220.5961518439 
-138522.31307594758 
13678524.831222512 
13678524.831222512 
13678524.831222512 
13678524.831222512 
13678524.831222512 
13678524.831219338 
13678524.83111393 
13678524.82809519 
13678524.753479477 
13678523.189354902 
13678495.815208796 
13678103.438526418 
13673607.111073278 
13633686.137708344 
13370485.650393246 
12157595.421484064 
8605656.496207844 
3113528.284014747 
735746.9703215361 
985647.9440865288 
687660.0621603299 
</DataArray>
<DataArray type="Float64" Name="sigma_yy" NumberOfComponents="1" format="ascii" >
0.0 
0.0 
0.0 
0.0 
0.0 
0.0 
0.0 
0.0 
0.0 
0.0 
0.0 
0.0 
0.0 
0.0 
0.0 
0.0 
0.0 
0.0 
0.0 
0.0 
0.0 
0.0 
0.0 
0.0 
0.0 
0.0 
0.0 
0.0 
0.0 
0.0 
0.0 
0.0 
0.0 
0.0 
0.0 
0.0 
0.0 
0.0 
0.0 
0.0 
0.0 
0.0 
0.0 
0.0 
0.0 
0.0 
0.0 
0.0 
0.0 
0.0 
0.0 
0.0 
0.0 
0.0 
0.0 
0.0 
0.0 
0.0 
0.0 
0.0 
0.0 
0.0 
0.0 
0.0 
0.0 
0.0 
0.0 
0.0 
0.0 
0.0 
0.0 
0.0 