<?xml version="1.0"?>
<VTKFile type="UnstructuredGrid" version="0.1" byte_order="LittleEndian" compressor="vtkZLibDataCompressor">
<UnstructuredGrid>
<Piece NumberOfPoints="441" NumberOfCells="400">
<PointData>
<DataArray type="Float64" Name="displacement" NumberOfComponents="3" format="ascii" >
0.0 2.988867709351182e-73  0.
-1.2268580980877104e-72 -1.5254485465404937e-72  0.
-2.447663170982334e-71 -2.172049492875608e-71  0.
-3.7137529065904636e-70 -3.251523851387808e-70  0.
-3.096058780057676e-69 -2.39942749975182e-69  0.
-1.6484383438162867e-68 -1.0988551331267873e-68  0.
-6.835086032024181e-68 -4.087707796349282e-68  0.
-2.270942345426345e-67 -1.1786445779934531e-67  0.
-6.417460690993958e-67 -2.967843060806362e-67  0.
-1.5626364129421773e-66 -6.241015037371587e-67  0.
-3.3594582899317457e-66 -1.1727157281661729e-66  0.
-6.419684502365087e-66 -1.8875070295543815e-66  0.
-1.1022498799844554e-65 -2.71530881036092e-66  0.
-1.704576008531423e-65 -3.307963546887865e-66  0.
-2.3808840228001804e-65 -3.4551072361394503e-66  0.
-2.9947093479977584e-65 -2.683388550832488e-66  0.
-3.3685977676484997e-65 -1.0536555917100868e-66  0.
-3.3294819137194922e-65 1.4288803843133846e-66  0.
-2.7869771778547925e-65 4.133971023011386e-66  0.
-1.674641641366283e-65 5.78011059043105e-66  0.
-9.60120731894843e-66 1.2052096138384838e-65  0.
0.0 -1.3984372625400238e-69  0.
-9.067013935382739e-69 -7.669795068134975e-69  0.
-4.675797088998986e-68 -3.0044431574541823e-68  0.
-3.445300479259723e-67 -2.680745033905553e-67  0.
-4.493339919660078e-66 -3.8834600265512747e-66  0.
-3.609618687481521e-65 -2.7732775032998032e-65  0.
-1.8447187099259174e-64 -1.2069477568226792e-64  0.
-7.36046459477673e-64 -4.310385496791225e-64  0.
-2.343137028707542e-63 -1.1764667081656302e-63  0.
-6.339312924073791e-63 -2.820629886793298e-63  0.
-1.472618003216431e-62 -5.568034728082766e-63  0.
-3.0125052425311954e-62 -9.83389609406101e-63  0.
-5.454223531282242e-62 -1.4587891777035258e-62  0.
-8.830669667406687e-62 -1.918260589228339e-62  0.
-1.279172075689736e-61 -2.0434505871009355e-62  0.
-1.6584733757778444e-61 -1.7503153076085565e-62  0.
-1.9103585703995862e-61 -7.677552736027822e-63  0.
-1.9224454409492528e-61 6.372254336089625e-63  0.
-1.6308165958454455e-61 2.3627292356479e-62  0.
-9.86016343751625e-62 3.3666473856183845e-62  0.
-5.6803816940478095e-62 7.140474453832242e-62  0.
0.0 -1.4235688376647717e-64  0.
-1.2859914359170716e-64 1.373948942998372e-65  0.
-2.1827903970775796e-64 -1.0349450666360632e-64  0.
-9.340082619461817e-64 -6.128309211682751e-64  0.
-7.052138123737507e-63 -5.513599057040749e-63  0.
-8.687656629622416e-62 -7.4374048243694505e-62  0.
-6.676930459375438e-61 -5.067392372856448e-61  0.
-3.2678134537180906e-60 -2.0944844326091686e-60  0.
-1.2557238472636397e-59 -7.198155615618799e-60  0.
-3.8372918953842917e-59 -1.8625515474089226e-59  0.
-9.961813704359344e-59 -4.263648960554188e-59  0.
-2.2110544468280843e-58 -7.888158403710874e-59  0.
-4.306162352149416e-58 -1.306781078437721e-58  0.
-7.37789390210446e-58 -1.7656266689510174e-58  0.
-1.1223809831083208e-57 -2.0810638710541358e-58  0.
-1.512267103315441e-57 -1.8187089535030445e-58  0.
-1.7971745488322828e-57 -1.029641652627696e-58  0.
-1.8521419487072534e-57 4.698554692251902e-59  0.
-1.5969897279561035e-57 2.1667263094378176e-58  0.
-9.756878478685642e-58 3.323224632913261e-58  0.
-5.6142479085373854e-58 7.084504222273372e-58  0.
0.0 2.572101894751401e-60  0.
1.7453812905995042e-60 -8.270224037085848e-61  0.
2.740036329406307e-60 1.8216106709615412e-60  0.
3.2723552348240005e-60 -1.2908566861536693e-60  0.
-9.869309426117357e-60 -1.1862942617644576e-59  0.
-1.2143302263920774e-58 -9.986055143789223e-59  0.
-1.3861098230351885e-57 -1.165978152474365e-57  0.
-1.0035252016309898e-56 -7.488365186490449e-57  0.
-4.722922657550075e-56 -2.9724194605035783e-56  0.
-1.7613553443079834e-55 -9.923372581245195e-56  0.
-5.2087046681259766e-55 -2.4562385682833405e-55  0.
-1.3066935532507812e-54 -5.404417301368904e-55  0.
-2.7843743768148106e-54 -9.376592199492872e-55  0.
-5.1735124853118443e-54 -1.4520937106637285e-54  0.
-8.376734156387093e-54 -1.7518777743429076e-54  0.
-1.1903223683429246e-53 -1.7755522799767033e-54  0.
-1.473692681609382e-53 -1.05750900942435e-54  0.
-1.5670083831081335e-53 1.1479612702035485e-55  0.
-1.382862672655833e-53 1.8045033016848256e-54  0.
-8.534619764628299e-54 2.845291485139479e-54  0.
-4.9567513949640275e-54 6.267779329891036e-54  0.
0.0 6.815520956114711e-57  0.
7.012793151455819e-56 6.33127931487472e-56  0.
1.2163163949615393e-55 -1.1799340875773802e-56  0.
1.3058537676821937e-55 2.074522839217994e-56  0.
1.1859885626432183e-55 -3.275095985387194e-56  0.
-1.2607036314107886e-55 -2.1214575653000668e-55  0.
-1.9003420967550554e-54 -1.5646546256554165e-54  0.
-1.864346221217584e-53 -1.5195768934485944e-53  0.
-1.2575198203080673e-52 -9.198717087124797e-53  0.
-5.780325829233749e-52 -3.605511118024696e-52  0.
-2.1214780008991598e-51 -1.1835852846012432e-51  0.
-6.139961666705403e-51 -2.8364640210970137e-51  0.
-1.49770332271579e-50 -6.003579269633603e-51  0.
-3.068724089355045e-50 -9.711403390720975e-51  0.
-5.4200482509429435e-50 -1.380803514757238e-50  0.
-8.219382585832909e-50 -1.4194049092319153e-50  0.
-1.0733654020572484e-49 -1.0942916555217771e-50  0.
-1.1872276225410517e-49 -5.279102392050221e-52  0.
-1.0761458594727534e-49 1.2281137236486657e-50  0.
-6.757477885781398e-50 2.2509428503113775e-50  0.
-3.9080931135798823e-50 4.977369039455158e-50  0.
0.0 1.0885321078918222e-51  0.
1.1161973094763253e-51 2.768091517361219e-53  0.
1.776609099273676e-51 6.3313926582801485e-52  0.
2.0074677861352348e-51 -4.026012290159293e-52  0.
1.6015715206318012e-51 -3.064752786804694e-54  0.
1.1398595101326518e-51 -4.592761410227193e-52  0.
-2.3514401784268884e-51 -3.0355183227259156e-51  0.
-2.5989746020807405e-50 -2.0636304419665852e-50  0.
-2.1360685240591638e-49 -1.671951393182707e-49  0.
-1.3517122404439544e-48 -9.71814396486114e-49  0.
-6.20746256718996e-48 -3.887032241834463e-48  0.
-2.2614345036928016e-47 -1.2527826329168022e-47  0.
-6.418027586571467e-47 -2.905601741923368e-47  0.
-1.5122239885590141e-46 -5.80171930030918e-47  0.
-2.945607404910779e-46 -8.536661871261422e-47  0.
-4.859836528069395e-46 -1.061280188964012e-46  0.
-6.7431071203492294e-46 -8.214816234055395e-47  0.
-7.81068653635659e-46 -2.5285991015426403e-47  0.
-7.31846268800661e-46 7.929142617894928e-47  0.
-4.656785666330461e-46 1.497876027421818e-46  0.
-2.733791109660018e-46 3.490003445032541e-46  0.
0.0 4.177753996083463e-49  0.
1.0102366845242826e-47 9.6835115846317e-48  0.
1.7120417903004664e-47 -2.656195370440708e-48  0.
1.6949251982576288e-47 2.4770780192776392e-48  0.
1.4290092852861388e-47 -5.1311745661191564e-48  0.
8.121738466682374e-48 -1.0409969692001494e-48  0.
4.338219456742135e-48 -2.748504460152053e-48  0.
-3.3121068226864187e-47 -3.4758330907526406e-47  0.
-2.9519881114049858e-46 -2.2769500380194525e-46  0.
-2.107184904723899e-45 -1.5865658658542282e-45  0.
-1.279640256064476e-44 -9.112385828741131e-45  0.
-5.919180429035391e-44 -3.7315515843956496e-44  0.
-2.1133494902656554e-43 -1.1491315039161637e-43  0.
-5.78342288765245e-43 -2.522607442379041e-43  0.
-1.286869436052295e-42 -4.565549314065828e-43  0.
-2.325136930008137e-42 -5.82200775486986e-43  0.
-3.477404460079327e-42 -5.696815650175668e-43  0.
-4.2411635616851674e-42 -1.988819144027886e-43  0.
-4.1149923166208654e-42 3.5487091389730793e-43  0.
-2.6747493390413826e-42 8.641513319362869e-43  0.
-1.5566510847642104e-42 2.0074939267543448e-42  0.
0.0 7.941113199649922e-44  0.
6.818564386350176e-44 -1.126641536667661e-44  0.
9.987906863582635e-44 4.3116449083327463e-44  0.
1.072968095873207e-43 -3.5841458165551455e-44  0.
7.117418612468278e-44 -1.9604265028806e-46  0.
4.451953305120139e-44 -2.6509577479987766e-44  0.
1.4358399252405168e-44 -3.6483007216550557e-45  0.
4.882080280240711e-45 -5.904789256009799e-45  0.
-3.2804334475328723e-43 -3.2754485200291583e-43  0.
-2.7872516135296583e-42 -2.13528623484814e-42  0.
-1.825233992104752e-41 -1.335123667046286e-41  0.
-1.0785169012637154e-40 -7.634112604084626e-41  0.
-4.885296763408294e-40 -3.0464882797566607e-40  0.
-1.6522712315997734e-39 -8.597578848172304e-40  0.
-4.2365303942157245e-39 -1.7260985007761527e-39  0.
-8.649953607637685e-39 -2.6896634956235516e-39  0.
-1.406535692525464e-38 -2.7236131855195247e-39  0.
-1.8290166323007915e-38 -1.5303935159149875e-39  0.
-1.8529505072858214e-38 1.4518475291934516e-39  0.
-1.2220385113901842e-38 3.8022047123151486e-39  0.
-7.212649044249752e-39 9.34455781497045e-39  0.
0.0 -4.3403269275136754e-41  0.
2.9549710388742427e-40 3.3814432933689396e-40  0.
4.8270711672478654e-40 -1.488745619059569e-40  0.
4.029128098906731e-40 6.726832190344365e-41  0.
2.992218653422567e-40 -1.7002707788416513e-40  0.
1.1069479019952316e-40 -1.8896541205915297e-41  0.
4.5117780072422614e-41 -4.667336519681347e-41  0.
-7.5901939629571e-43 7.717595582395332e-43  0.
-2.980539993221705e-42 -3.659693709081032e-42  0.
-2.532209160768797e-39 -2.530499153369382e-39  0.
-2.2692774475244358e-38 -1.7660556455960662e-38  0.
-1.4126216779567585e-37 -1.010899560516417e-37  0.
-7.934311865765506e-37 -5.5179249940149505e-37  0.
-3.361909883816933e-36 -2.019015346418554e-36  0.
-1.038004645407344e-35 -5.005432251239739e-36  0.
-2.442827232642135e-35 -9.049731182988126e-36  0.
-4.491949020334146e-35 -1.1435516618372584e-35  0.
-6.379324323878913e-35 -7.598379889275224e-36  0.
-6.882188745446473e-35 3.4192828238425274e-36  0.
-4.621072116989249e-35 1.4609646618445813e-35  0.
-2.670310896245241e-35 3.5504446011064143e-35  0.
0.0 1.2154872703759607e-36  0.
1.4113456863856752e-36 1.7932076666828798e-37  0.
1.8454575603764732e-36 2.904329273297183e-37  0.
1.5606195431628596e-36 -6.024227353505424e-37  0.
7.340952230301588e-37 -2.1339384759746963e-37  0.
2.586186831609537e-37 -2.6468744797360336e-37  0.
-3.051817426028285e-39 3.051370559959447e-39  0.
4.62153415377922e-41 -4.463219224390778e-41  0.
-1.9488433896647656e-41 -2.617917321973206e-41  0.
-2.3323138365531845e-38 -2.834030505592543e-38  0.
-1.6681581342207636e-35 -1.6669934045046567e-35  0.
-1.6421946075665308e-34 -1.31157782469718e-34  0.
-9.608935846869965e-34 -6.6669020716128876e-34  0.
-4.839934514864141e-33 -3.219697498491767e-33  0.
-1.9727255335982643e-32 -1.1665113907427522e-32  0.
-5.549873675316202e-32 -2.4139930195938014e-32  0.
-1.2247201893786263e-31 -4.2855824402144925e-32  0.
-2.0628718706513476e-31 -4.168619902407555e-32  0.
-2.551215447178809e-31 -1.9389184809840245e-33  0.
-1.7764232419801902e-31 5.25992013677266e-32  0.
-1.0383745941922535e-31 1.474420568629175e-31  0.
0.0 1.1242134674538293e-32  0.
9.396400657104512e-33 -2.2689501471201553e-33  0.
8.285168162453456e-33 1.9340276856858814e-33  0.
6.336612236033566e-33 -4.327541705673799e-33  0.
9.458164684817709e-34 -9.668821496192928e-34  0.
-8.698455101628409e-36 8.384605621809502e-36  0.
1.1176385333913692e-37 -1.0548110634292803e-37  0.
5.507354516482346e-41 -1.4410975229962947e-40  0.
-6.818900595852107e-41 -1.1567193728206274e-40  0.
-1.5462631240677705e-37 -2.0612992210530964e-37  0.
-1.626654507955388e-34 -1.9565938008373087e-34  0.
-1.029038291304682e-31 -1.028483882580431e-31  0.
-1.0268281904057405e-30 -8.198487629411526e-31  0.
-5.377520733463978e-30 -3.5398179157303956e-30  0.
-2.296960829816099e-29 -1.402816602546005e-29  0.
-1.051256324320007e-28 -6.938318210103916e-29  0.
-2.932948465912753e-28 -1.2065407409752102e-28  0.
-6.265511093932541e-28 -2.12491301498209e-28  0.
-9.914860562570217e-28 -1.2721615561760938e-28  0.
-8.329054192487663e-28 1.15318468141354e-28  0.
-6.684402748640141e-28 8.658342442620766e-28  0.
0.0 -1.584837162246476e-29  0.
4.5758018017117726e-29 5.437199661533638e-29  0.
4.482466196470955e-29 -4.437874717851471e-29  0.
2.073843542684118e-30 -2.0841912398875847e-30  0.
-1.6758029171670786e-32 1.530641069937342e-32  0.
1.9619000748011074e-34 -1.784877589109756e-34  0.
9.48096030994559e-38 -3.05064992241543e-37  0.
3.4432323188792044e-39 -3.6228910705080545e-39  0.
1.8523029006994233e-40 4.771928474049702e-41  0.
-4.715511784817525e-37 -8.326802275187874e-37  0.
-9.910375779741342e-34 -1.3474113139243748e-33  0.
-9.701685553700529e-31 -1.1750295063070577e-30  0.
-5.807296410720339e-28 -5.807308061340005e-28  0.
-4.959414714274138e-27 -3.899674283340737e-27  0.
-2.649611496585947e-26 -1.799933869983949e-26  0.
-1.1693018644716502e-25 -6.489295047244019e-26  0.
-5.1547988622872595e-25 -2.987390482571658e-25  0.
-1.446515904344633e-24 -4.596185363222621e-25  0.
-2.5775782068074495e-24 -4.62853375043808e-25  0.
-2.9772098800512544e-24 -4.381407150314807e-25  0.
-4.03697864727797e-24 3.4934510905884395e-24  0.
0.0 2.6197793352193272e-20  0.
1.995225129981808e-25 2.619740309942987e-20  0.
2.1938872670865926e-27 2.6197529055719582e-20  0.
-2.0916299420087e-29 2.6197531555650567e-20  0.
2.3768134929618063e-31 2.6197531538847652e-20  0.
1.0603401376133697e-34 2.6197531539053718e-20  0.
8.277294455094393e-36 2.6197531539054172e-20  0.
5.425283940468633e-37 2.619753153905418e-20  0.
-4.487980673419587e-37 2.6197531539054184e-20  0.
4.688347243094549e-39 2.619753153905418e-20  0.
-2.7496722246814756e-33 2.6197531539049096e-20  0.
-4.2253268659649455e-30 2.6197531532665384e-20  0.
-4.52481269529938e-27 2.6197525940885365e-20  0.
-2.4643835564828663e-24 2.6195087864513016e-20  0.
-4.423583107233918e-23 2.6109713741588988e-20  0.
-1.5788423086993602e-22 2.5992199084228958e-20  0.
-3.531336354949174e-22 2.535225667341905e-20  0.
-1.108928359992063e-21 2.420867777701362e-20  0.
-1.8220390188517833e-21 2.0979889175885174e-20  0.
-2.4491433586273414e-21 1.687190904957766e-20  0.
-8.997058760516716e-21 1.7627199734623377e-20  0.
0.0 6.017530285200881e-18  0.
9.3868962507417e-25 6.017862906540561e-18  0.
-1.3242186176264135e-26 6.017864089280965e-18  0.
1.9040289022217861e-28 6.017864078062124e-18  0.
7.876345472790834e-32 6.0178640782071725e-18  0.
1.7296554722058274e-32 6.017864078207633e-18  0.
-6.262788034061738e-35 6.01786407820765e-18  0.
1.2161790696487572e-35 6.0178640782076486e-18  0.
-2.5031380627935853e-34 6.01786407820765e-18  0.
3.4727513739660005e-34 6.017864078207652e-18  0.
-8.928352974456265e-33 6.017864078207633e-18  0.
-1.5042695431854894e-29 6.0178640781819305e-18  0.
-4.783824221933638e-27 6.017864064611426e-18  0.
-1.3599039365944157e-23 6.017843571869969e-18  0.
-6.487247465463285e-21 6.011293560868846e-18  0.
-2.6634367156877603e-20 5.978501761277669e-18  0.
-8.557849311794482e-20 5.868501247914995e-18  0.
-1.9044965118720972e-19 5.5936025377612666e-18  0.
-3.5853907870722786e-19 5.0522040581864354e-18  0.
-5.721657392681703e-19 4.1829967569905006e-18  0.
-2.2039127641086847e-18 4.322157388097212e-18  0.
0.0 1.0061286468875466e-15  0.
-5.298124708433092e-24 1.0061284251736594e-15  0.
7.770184461591037e-26 1.0061284242705328e-15  0.
2.443177106498609e-29 1.00612842433942e-15  0.
2.2489245571223024e-29 1.0061284243397482e-15  0.
1.7830394541771493e-32 1.0061284243397715e-15  0.
-1.0519795978237512e-32 1.0061284243397717e-15  0.
2.9036151257642117e-33 1.0061284243397715e-15  0.
-3.5447886067545165e-32 1.0061284243397715e-15  0.
8.443643349355866e-33 1.0061284243397715e-15  0.
-1.1148449251710373e-32 1.0061284243397715e-15  0.
-6.848754184136259e-29 1.0061284243396634e-15  0.
-1.0983861964047228e-25 1.0061284242196234e-15  0.
-1.9249196516646186e-23 1.0061283427130859e-15  0.
-4.6158022881363803e-20 1.006096272242009e-15  0.
-2.7990729551577165e-18 1.0033151756558822e-15  0.
-9.71074938779345e-18 9.910294051115561e-16  0.
-2.8625805038908086e-17 9.532491817619208e-16  0.
-5.569350744379771e-17 8.701909876948924e-16  0.
-9.845343697193954e-17 7.273760285267447e-16  0.
-3.8259807040978415e-16 7.54384613777237e-16  0.
0.0 1.2500756047363916e-13  0.
2.346157533329494e-23 1.2500756074534474e-13  0.
4.962359777672485e-26 1.2500756074795803e-13  0.
1.7463038053618968e-26 1.2500756074804347e-13  0.
4.8242441204291996e-30 1.2500756074806094e-13  0.
0.0 1.25007560748061e-13  0.
-1.123493112559821e-30 1.2500756074806094e-13  0.
1.1365900925845936e-30 1.25007560748061e-13  0.
-1.2523420425702523e-29 1.2500756074806094e-13  0.
6.92717670285078e-30 1.25007560748061e-13  0.
-6.927164468919032e-30 1.25007560748061e-13  0.
-1.1434174738391548e-28 1.250075607480607e-13  0.
-4.2512201290346775e-25 1.2500756074733688e-13  0.
-6.239219884019869e-22 1.250075601701181e-13  0.
-1.7597817414424603e-19 1.250074614933606e-13  0.
-1.7927764124586698e-17 1.2499498560425128e-13  0.
-8.753511303379497e-16 1.2412650468666156e-13  0.
-2.59952404130686e-15 1.2072811651657242e-13  0.
-6.8005460717444235e-15 1.1151912082127304e-13  0.
-1.2027286130990208e-14 9.426361137252373e-14  0.
-5.015970846276306e-14 9.859636627207746e-14  0.
0.0 1.1033270726616398e-11  0.
-1.6489652662324326e-23 1.1033270728217186e-11  0.
6.2947702384158704e-24 1.1033270728242297e-11  0.
-6.4209823703363094e-27 1.1033270728249154e-11  0.
5.597763149370531e-29 1.103327072824918e-11  0.
0.0 1.103327072824918e-11  0.
3.004777756275116e-29 1.103327072824918e-11  0.
4.943936459955858e-30 1.103327072824918e-11  0.
-9.163695473089999e-28 1.1033270728249182e-11  0.
7.178164340281531e-28 1.1033270728249182e-11  0.
-6.382280482953937e-28 1.1033270728249182e-11  0.
5.6333129086290775e-28 1.1033270728249182e-11  0.
-2.3269177069751017e-25 1.1033270728247572e-11  0.
-2.3338619636847573e-21 1.1033270726875215e-11  0.
-4.720681750563371e-19 1.1033270527911871e-11  0.
-6.211275170299673e-17 1.1033238526892776e-11  0.
-5.1549314691883174e-15 1.1029783406285953e-11  0.
-1.9454377002443933e-13 1.0836984644601213e-11  0.
-4.812377874069514e-13 1.018194004314531e-11  0.
-1.1401335709504157e-12 8.719640085113995e-12  0.
-4.586880118111912e-12 9.142052147866787e-12  0.
0.0 6.475302744285006e-10  0.
8.1235651098706075e-22 6.475302744291627e-10  0.
-5.87418967343151e-23 6.475302744296897e-10  0.
-1.2240442086623582e-26 6.4753027442966e-10  0.
0.0 6.4753027442966e-10  0.
1.1941894718657153e-27 6.4753027442966e-10  0.
-1.7865601840470286e-27 6.4753027442966e-10  0.
-1.1640431849050425e-26 6.4753027442966e-10  0.
-3.06342553813034e-26 6.475302744296599e-10  0.
4.106629835440562e-27 6.475302744296601e-10  0.
-6.736412314988595e-27 6.4753027442966e-10  0.
5.4705015027715714e-27 6.475302744296601e-10  0.
1.8477930528020826e-25 6.475302744296584e-10  0.
-4.363797597666013e-21 6.475302744287077e-10  0.
-9.656700440142983e-19 6.475302741336042e-10  0.
-1.4880198871997051e-16 6.475302189542585e-10  0.
-1.590054056065657e-14 6.475228451993213e-10  0.
-1.044520395176358e-12 6.468557523590746e-10  0.
-2.8794402334520538e-11 6.184597628772905e-10  0.
-6.03440546263528e-11 5.399380317174738e-10  0.
-2.9509531788434324e-10 5.718686076335376e-10  0.
0.0 2.2764429343485915e-08  0.
8.754641829405397e-22 2.276442934348243e-08  0.
-5.831943704803406e-23 2.2764429343481865e-08  0.
0.0 2.2764429343481888e-08  0.
0.0 2.2764429343481888e-08  0.
1.289724629614973e-25 2.2764429343481888e-08  0.
-3.730594264878313e-25 2.276442934348189e-08  0.
2.8857052135333187e-25 2.276442934348189e-08  0.
-2.399111488369693e-24 2.2764429343481888e-08  0.
1.4531454937575651e-24 2.2764429343481898e-08  0.
-1.4844929673940403e-24 2.2764429343481888e-08  0.
1.485687156865906e-24 2.2764429343481898e-08  0.
8.723274203821577e-25 2.2764429343481888e-08  0.
-6.7287713403008884e-21 2.2764429343481004e-08  0.
-1.576247623390147e-18 2.2764429343162044e-08  0.
-2.6759285545917035e-16 2.27644292790083e-08  0.
-3.319162403249365e-14 2.2764419277453797e-08  0.
-2.8049017551104996e-12 2.2763320261212096e-08  0.
-1.4022910627556127e-10 2.2680870691814244e-08  0.
-2.6676105863503977e-09 2.0297709166535572e-08  0.
-1.0316839922890596e-08 2.090574646902355e-08  0.
0.0 3.99224057602165e-07  0.
2.321504333306947e-23 3.9922405760216535e-07  0.
7.719240746139973e-24 3.9922405760216535e-07  0.
-2.522128164580386e-24 3.9922405760216535e-07  0.
-2.522128164580386e-24 3.9922405760216535e-07  0.
-2.522128164580386e-24 3.9922405760216535e-07  0.
-4.3158007513226856e-24 3.9922405760216535e-07  0.
1.4115319557452729e-24 3.9922405760216535e-07  0.
-4.070275395907099e-23 3.992240576021654e-07  0.
2.475554775177624e-23 3.992240576021654e-07  0.
-2.3991266489782183e-23 3.992240576021654e-07  0.
2.475554775177624e-23 3.992240576021654e-07  0.
1.434221555710721e-23 3.9922405760216535e-07  0.
-8.60015132871432e-21 3.9922405760216445e-07  0.
-2.1015598968617502e-18 3.992240576019549e-07  0.
-3.764494466990443e-16 3.99224057556972e-07  0.
-5.0686095658940145e-14 3.9922405010991536e-07  0.
-4.9038714797307075e-12 3.992230968181117e-07  0.
-3.2020271030587946e-10 3.9914082173525326e-07  0.
-1.2195135088919933e-08 3.9459237286677296e-07  0.
-2.1457282871926235e-07 3.9570660416385874e-07  0.
0.0 2.4499999999999986e-06  0.
1.8877747171253195e-23 2.4499999999999986e-06  0.
0.0 2.4499999999999986e-06  0.
0.0 2.4499999999999986e-06  0.
0.0 2.4499999999999986e-06  0.
0.0 2.4499999999999986e-06  0.
-2.0778896810463405e-24 2.4499999999999986e-06  0.
2.0778896810463405e-24 2.4499999999999986e-06  0.
-7.430246893948473e-23 2.4499999999999986e-06  0.
4.433786671143021e-23 2.4499999999999986e-06  0.
-4.433786671143021e-23 2.4499999999999986e-06  0.
4.433786671143021e-23 2.4499999999999986e-06  0.
3.027031473285208e-23 2.4499999999999986e-06  0.
-9.479839061269479e-21 2.4499999999999986e-06  0.
-2.3109814175095825e-18 2.4499999999999986e-06  0.
-4.2126084933840436e-16 2.4499999999999986e-06  0.
-5.818278437720212e-14 2.4499999999999986e-06  0.
-5.898860297955295e-12 2.4499999999999986e-06  0.
-4.1615366660213846e-10 2.4499999999999986e-06  0.
-1.915586388555491e-08 2.4499999999999986e-06  0.
-4.09006983355453e-07 2.4499999999999986e-06  0.
</DataArray>
<DataArray type="Float64" Name="sigma_xx" NumberOfComponents="1" format="ascii" >
0.0 
0.0 
0.0 
0.0 
0.0 
0.0 
0.0 
0.0 
0.0 
0.0 
0.0 
0.0 
0.0 
0.0 
0.0 
0.0 
0.0 
0.0 
0.0 
0.0 
0.0 
0.0 
0.0 
0.0 
0.0 
0.0 
0.0 
0.0 
0.0 
0.0 
0.0 
0.0 
0.0 
0.0 
0.0 
0.0 
0.0 
0.0 
0.0 
0.0 
0.0 
0.0 
0.0 
0.0 
0.0 
0.0 
0.0 
0.0 
0.0 
0.0 
0.0 
0.0 
0.0 
0.0 
0.0 
0.0 
0.0 
0.0 
0.0 
0.0 
0.0 
0.0 
0.0 
0.0 
0.0 
0.0 
0.0 
0.0 
0.0 
0.0 
0.0 
0.0 
0.0 
0.0 
0.0 
0.0 
0.0 
0.0 
0.0 
0.0 
0.0 
0.0 
0.0 
0.0 
0.0 
0.0 
0.0 
0.0 
0.0 
0.0 
0.0 
0.0 
0.0 
0.0 
0.0 
0.0 
0.0 
0.0 
0.0 
0.0 
0.0 
0.0 
0.0 
0.0 
0.0 
0.0 
0.0 
0.0 
0.0 
0.0 
0.0 
0.0 
0.0 
0.0 
0.0 
0.0 
0.0 
0.0 
0.0 
0.0 
0.0 
0.0 
0.0 
0.0 
0.0 
0.0 
0.0 
0.0 
0.0 
0.0 
0.0 
0.0 
0.0 
0.0 
0.0 
0.0 
0.0 
0.0 
0.0 
0.0 
0.0 
0.0 
0.0 
0.0 
0.0 
0.0 
0.0 
0.0 
0.0 
0.0 
0.0 
0.0 
0.0 
0.0 
0.0 
0.0 
0.0 
0.0 
0.0 
0.0 
0.0 
0.0 
0.0 
0.0 
0.0 
0.0 
0.0 
0.0 
0.0 
0.0 
0.0 
0.0 
0.0 
0.0 
0.0 
0.0 
0.0 
0.0 
0.0 
0.0 
0.0 
0.0 
0.0 
0.0 
0.0 
0.0 
0.0 
0.0 
0.0 
0.0 
0.0 
0.0 
0.0 
0.0 
0.0 
0.0 
0.0 
0.0 
0.0 
0.0 
0.0 
0.0 
0.0 
0.0 
0.0 
0.0 
0.0 
0.0 
0.0 
0.0 
0.0 
0.0 
0.0 
0.0 
0.0 
0.0 
0.0 
0.0 
0.0 
0.0 
0.0 
0.0 
0.0 
0.0 
0.0 
0.0 
0.0 
0.0 
0.0 
0.0 
0.0 
0.0 
0.0 
0.0 
0.0 
0.0 
0.0 
0.0 
0.0 
0.0 
0.0 
0.0 
0.0 
0.0 
0.0 
0.0 
0.0 
0.0 
0.0 
0.0 
0.0 
0.0 
1.678657213233236e-05 
1.678657213233236e-05 
1.678657213233236e-05 
1.678657213233236e-05 
1.678657213233236e-05 
1.678657213233236e-05 
1.678657213233236e-05 
1.678657213233236e-05 
1.678657213233236e-05 
1.678657213233236e-05 
1.678657213233236e-05 
1.678657213233236e-05 
1.678657213233236e-05 
1.678657213233236e-05 
1.67088565206086e-05 
1.6481260800560442e-05 
1.6031620475587254e-05 
1.526001547347277e-05 
1.3633538742396917e-05 
1.013078509970455e-05 
7.782663402622344e-06 
0.0028170354937628863 
0.0028170354937628863 
0.0028170354937628863 
0.0028170354937628863 
0.0028170354937628863 
0.0028170354937628863 
0.0028170354937628863 
0.0028170354937628863 
0.0028170354937628863 
0.0028170354937628863 
0.0028170354937628863 
0.0028170354937628863 
0.0028170354937628863 
0.0028169633292662857 
0.002811334498531436 
0.0027898017229688312 
0.002722977399116643 
0.0025769664180330656 
0.00230323538019661 
0.0017260082252334987 
0.0013273493415510975 
0.3500042256021628 
0.3500042256021628 
0.3500042256021628 
0.3500042256021628 
0.3500042256021628 
0.3500042256021628 
0.3500042256021628 
0.3500042256021628 
0.3500042256021628 
0.3500042256021628 
0.3500042256021628 
0.3500042256021628 
0.3500042256021628 
0.3500037148995715 
0.3499645462312627 
0.34820698546766937 
0.34234338142091747 
0.3261328762604875 
0.2941689281055203 
0.2218183692281882 
0.16936595459426929 
30.89034119607702 
30.89034119607702 
30.89034119607702 
30.89034119607702 
30.89034119607702 
30.89034119607702 
30.89034119607702 
30.89034119607702 
30.89034119607702 
30.89034119607702 
30.89034119607702 
30.89034119607702 
30.89034119607702 
30.890339663969247 
30.890189017807035 
30.878880269424858 
30.48852406095647 
29.382974481295665 
26.688088938797698 
20.281641344155325 
15.84372628649077 
1812.7358818009745 
1812.7358818009745 
1812.7358818009745 
1812.7358818009745 
1812.7358818009745 
1812.7358818009745 
1812.7358818009745 
1812.7358818009745 
1812.7358818009745 
1812.7358818009745 
1812.7358818009745 
1812.7358818009745 
1812.7358818009745 
1812.7358786812479 
1812.735473205595 
1812.6960291464648 
1810.3908223154879 
1752.7954477736248 
1616.7335201322512 
1231.9428085633126 
927.8848152216575 
63710.87977798948 
63710.87977798948 
63710.87977798948 
63710.87977798948 
63710.87977798948 
63710.87977798948 
63710.87977798948 
63710.87977798948 
63710.87977798948 
63710.87977798948 
63710.87977798948 
63710.87977798948 
63710.87977798948 
63710.87977264376 
63710.878939915434 
63710.78394099003 
63703.61735719141 
63394.002730754444 
58249.6506865232 
44975.682008702155 
36543.523160931225 
1116412.46734242 
1116412.46734242 
1116412.46734242 
1116412.46734242 
1116412.46734242 
1116412.46734242 
1116412.46734242 
1116412.46734242 
1116412.46734242 
1116412.46734242 
1116412.46734242 
1116412.46734242 
1116412.46734242 
1116412.4673344153 
1116412.4659712445 
1116412.2944612883 
1116397.242669989 
1115556.0305441204 
1090315.7171586405 
802352.0999742375 
538802.4656859555 
6808432.328527323 
6808432.328527323 
6808432.328527323 
6808432.328527323 
6808432.328527323 
6808432.328527323 
6808432.328527323 
6808432.328527323 
6808432.328527323 
6808432.328527323 
6808432.328527323 
6808432.328527323 
6808432.328527323 
6808432.328517098 
6808432.326698996 
6808432.085127484 
6808409.058823124 
6806937.050638473 
6750236.528478382 
5712136.714076407 
4729288.200190599 
11507897.096436622 
11507897.096436622 
11507897.096436622 
11507897.096436622 
11507897.096436622 
11507897.096436622 
11507897.096436622 
11507897.096436622 
11507897.096436622 
11507897.096436622 
11507897.096436622 
11507897.096436622 
11507897.096436622 
11507897.09642554 
11507897.094427118 
11507896.824049287 
11507870.38315127 
11506102.573561288 
11433160.249391489 
9907096.829682324 
8452234.097060503 
</DataArray>
<DataArray type="Float64" Name="sigma_yy" NumberOfComponents="1" format="ascii" >
0.0 
0.0 
0.0 
0.0 
0.0 
0.0 
0.0 
0.0 
0.0 
0.0 
0.0 
0.0 
0.0 
0.0 
0.0 
0.0 
0.0 
0.0 
0.0 
0.0 
0.0 
0.0 
0.0 
0.0 
0.0 
0.0 
0.0 
0.0 
0.0 
0.0 
0.0 
0.0 
0.0 
0.0 
0.0 
0.0 
0.0 
0.0 
0.0 
0.0 
0.0 
0.0 
0.0 
0.0 
0.0 
0.0 
0.0 
0.0 
0.0 
0.0 
0.0 
0.0 
0.0 
0.0 
0.0 
0.0 
0.0 
0.0 
0.0 
0.0 
0.0 
0.0 
0.0 
0.0 
0.0 
0.0 
0.0 
0.0 
0.0 
0.0 
0.0 
0.0 
0.0 
0.0 
0.0 
0.0 
0.0 
0.0 
0.0 
0.0 
0.0 
0.0 
0.0 
0.0 
0.0 
0.0 
0.0 
0.0 
0.0 
0.0 
0.0 
0.0 
0.0 
0.0 
0.0 
0.0 
0.0 
0.0 
0.0 
0.0 
0.0 
0.0 
0.0 
0.0 
0.0 
0.0 
0.0 
0.0 
0.0 
0.0 
0.0 
0.0 
0.0 
0.0 
0.0 
0.0 
0.0 
0.0 
0.0 
0.0 
0.0 
0.0 
0.0 
0.0 
0.0 
0.0 
0.0 
0.0 
0.0 
0.0 
0.0 
0.0 
0.0 
0.0 
0.0 
0.0 
0.0 
0.0 
0.0 
0.0 
0.0 
0.0 
0.0 
0.0 
0.0 
0.0 
0.0 
0.0 
0.0 
0.0 
0.0 
0.0 
0.0 
0.0 
0.0 
0.0 
0.0 
0.0 
0.0 
0.0 
0.0 
0.0 
0.0 
0.0 
0.0 
0.0 
0.0 
0.0 
0.0 
0.0 
0.0 
0.0 
0.0 
0.0 
0.0 
0.0 
0.0 
0.0 
0.0 
0.0 
0.0 
0.0 
0.0 
0.0 
0.0 
0.0 
0.0 
0.0 
0.0 
0.0 
0.0 
0.0 
0.0 
0.0 
0.0 
0.0 
0.0 
0.0 
0.0 
0.0 
0.0 
0.0 
0.0 
0.0 
0.0 
0.0 
0.0 
0.0 
0.0 
0.0 
0.0 
0.0 
0.0 
0.0 
0.0 
0.0 
0.0 
0.0 
0.0 
0.0 
0.0 
0.0 
0.0 
0.0 
0.0 
0.0 
0.0 
0.0 
0.0 
0.0 
0.0 
0.0 
0.0 
0.0 
0.0 
0.0 
0.0 
0.0 
0.0 
0.0 
0.0 
0.0 
0.0 
0.0 
0.0 
0.0 
0.0 
0.0 
0.0 
0.0 
0.0 
0.0 
3.117506253147439e-05 
3.117506253147439e-05 
3.117506253147439e-05 
3.117506253147439e-05 
3.117506253147439e-05 
3.117506253147439e-05 
3.117506253147439e-05 
3.117506253147439e-05 
3.117506253147439e-05 
3.117506253147439e-05 
3.117506253147439e-05 
3.117506253147439e-05 
3.117506253147439e-05 
3.117506253147439e-05 
3.103073353827312e-05 
3.07032177460087e-05 
3.0153657348819245e-05 
2.881583860414593e-05 
2.5890400934258647e-05 
2.1954660311962467e-05 
1.9972912213006563e-05 
0.005231637345559647 
0.005231637345559647 
0.005231637345559647 
0.005231637345559647 
0.005231637345559647 
0.005231637345559647 
0.005231637345559647 
0.005231637345559647 
0.005231637345559647 
0.005231637345559647 
0.005231637345559647 
0.005231637345559647 
0.005231637345559647 
0.005231598487753785 
0.005225903043637458 
0.005197808849999318 
0.0051018744784414585 
0.0048656356721465946 
0.004398292841045758 
0.0037720382373151997 
0.0034503844226207994 
0.6500078475468739 
0.6500078475468739 
0.6500078475468739 
0.6500078475468739 
0.6500078475468739 
0.6500078475468739 
0.6500078475468739 
0.6500078475468739 
0.6500078475468739 
0.6500078475468739 
0.6500078475468739 
0.6500078475468739 
0.6500078475468739 
0.6500074700710455 
0.6499746962873586 
0.6482037462340883 
0.6402951446826676 
0.6159912802061739 
0.5627157462217979 
0.4874024239764906 
0.44723081904507456 
57.367776507000194 
57.367776507000194 
57.367776507000194 
57.367776507000194 
57.367776507000194 
57.367776507000194 
57.367776507000194 
57.367776507000194 
57.367776507000194 
57.367776507000194 
57.367776507000194 
57.367776507000194 
57.367776507000194 
57.36777537457271 
57.36766689468097 
57.35834558984187 