<?xml version="1.0"?>
<VTKFile type="UnstructuredGrid" version="0.1" byte_order="LittleEndian" compressor="vtkZLibDataCompressor">
<UnstructuredGrid>
<Piece NumberOfPoints="441" NumberOfCells="400">
<PointData>
<DataArray type="Float64" Name="displacement" NumberOfComponents="3" format="ascii" >
0.0 2.099679981787545e-13  0.
-2.1035240453722212e-20 2.0996795966645247e-13  0.
-1.182725321738061e-19 2.099678496747687e-13  0.
-4.747368376107936e-19 2.0996737945608003e-13  0.
-1.726550792229603e-18 2.099655296225995e-13  0.
-5.6130230790658126e-18 2.099593566899658e-13  0.
-1.6412687157978993e-17 2.0994062396138015e-13  0.
-4.351124856420489e-17 2.0988927629101514e-13  0.
-1.0552919762488811e-16 2.0976084564494483e-13  0.
-2.355184735782207e-16 2.0946538872387393e-13  0.
-4.863444113016461e-16 2.0883751654842955e-13  0.
-9.336685348291078e-16 2.075979726345351e-13  0.
-1.672963604817872e-15 2.0531574580027968e-13  0.
-2.8073192827698837e-15 2.0138316618263207e-13  0.
-4.4242650198858626e-15 1.950220298200279e-13  0.
-6.5641638787427835e-15 1.8533895806829818e-13  0.
-9.187498527866512e-15 1.714380029806957e-13  0.
-1.2154711079488684e-14 1.5258520398788844e-13  0.
-1.5277489075970098e-14 1.2844295523947294e-13  0.
-1.9479480713676975e-14 1.003258914672219e-13  0.
-4.823075802564668e-14 1.0104452638425546e-13  0.
0.0 1.133417193734777e-12  0.
-6.969108732867572e-20 1.1334171517159468e-12  0.
-3.579755305902496e-19 1.1334168524216244e-12  0.
-1.6004028288247061e-18 1.1334154126036086e-12  0.
-6.346249482950057e-18 1.1334094125731223e-12  0.
-2.210231970350379e-17 1.1333875031538253e-12  0.
-6.859224225120258e-17 1.1333164891035733e-12  0.
-1.916106834365826e-16 1.1331100050289633e-12  0.
-4.860022140896555e-16 1.1325662316202194e-12  0.
-1.1276043389731143e-15 1.1312594097552817e-12  0.
-2.4085375475142077e-15 1.1283734296735423e-12  0.
-4.761085930306131e-15 1.122484301437582e-12  0.
-8.749523497182338e-15 1.1113265625358857e-12  0.
-1.5004579005622803e-14 1.0916199457294704e-12  0.
-2.408971457206443e-14 1.0590633643694517e-12  0.
-3.6306154932395816e-14 1.008607524919794e-12  0.
-5.148397218094213e-14 9.350746827810817e-13  0.
-6.883803690158294e-14 8.341103303490647e-13  0.
-8.728774044150984e-14 7.036415130561107e-13  0.
-1.1303643378306612e-13 5.531307228043645e-13  0.
-3.1000792001849527e-13 5.715168166365398e-13  0.
0.0 1.0721333348814502e-11  0.
-3.094610042226962e-19 1.0721333170656639e-11  0.
-1.7885806106755936e-18 1.0721331801038172e-11  0.
-8.950338805598277e-18 1.0721324445808963e-11  0.
-3.8541143125828646e-17 1.0721290870947397e-11  0.
-1.4481134177214872e-16 1.0721157707643749e-11  0.
-4.799921526423393e-16 1.0720694170764949e-11  0.
-1.4197414647280627e-15 1.0719259894878904e-11  0.
-3.783692180822126e-15 1.0715274741803067e-11  0.
-9.163847670413441e-15 1.0705240576840408e-11  0.
-2.0312029843614518e-14 1.0682171786867814e-11  0.
-4.145718721602068e-14 1.0633431760945491e-11  0.
-7.830893060494565e-14 1.0538279639731858e-11  0.
-1.374930389320755e-13 1.0365844814640038e-11  0.
-2.2520669863654288e-13 1.0074644777771427e-11  0.
-3.4519208955616386e-13 9.614868469128271e-12  0.
-4.964101557903827e-13 8.93427766062705e-12  0.
-6.713820089408859e-13 7.987751987932612e-12  0.
-8.593023663104202e-13 6.752604004157646e-12  0.
-1.1226371986512109e-12 5.321825603318748e-12  0.
-3.0607841280153756e-12 5.535375575399949e-12  0.
0.0 9.022470795940039e-11  0.
-1.2181843292167147e-18 9.022470724835447e-11  0.
-7.818165064404858e-18 9.022470168632452e-11  0.
-4.2827675846504953e-17 9.022466911403433e-11  0.
-2.012396287020559e-16 9.02245061353474e-11  0.
-8.176816845537153e-16 9.022380371883947e-11  0.
-2.9061499017187584e-15 9.022116822722911e-11  0.
-9.134298616933083e-15 9.02124617490608e-11  0.
-2.566718088656803e-14 9.01868487990337e-11  0.
-6.506908020148661e-14 9.011909408538055e-11  0.
-1.5003811618349096e-13 8.995653116962371e-11  0.
-3.1679050193620484e-13 8.960021103080956e-11  0.
-6.16064349147864e-13 8.88822729702624e-11  0.
-1.1088315510415843e-12 8.754561131447945e-11  0.
-1.854836657077969e-12 8.523583901235644e-11  0.
-2.893687753697489e-12 8.151749279673369e-11  0.
-4.2227420225222215e-12 7.592346651395232e-11  0.
-5.779968593848083e-12 6.803984851771794e-11  0.
-7.474377004093453e-12 5.765018600517946e-11  0.
-9.894950682965216e-12 4.561292231764177e-11  0.
-2.655239416420009e-11 4.775289940818398e-11  0.
0.0 6.643306198333518e-10  0.
-4.274130773531182e-18 6.643306174876877e-10  0.
-2.9922758952424954e-17 6.6433059789764e-10  0.
-1.7792387397495994e-16 6.643304732617844e-10  0.
-9.084729103820805e-16 6.643297939172049e-10  0.
-3.994748346475499e-15 6.643266120413623e-10  0.
-1.5245842443718068e-14 6.643137307414754e-10  0.
-5.10550667218918e-14 6.642681766405303e-10  0.
-1.515977051911172e-13 6.641259378622553e-10  0.
-4.031990326958289e-13 6.637296308606005e-10  0.
-9.688458010415933e-13 6.627352530323693e-10  0.
-2.1194870757000903e-12 6.604700616000425e-10  0.
-4.2483485065200425e-12 6.557530033070298e-10  0.
-7.845844688565588e-12 6.467203374009592e-10  0.
-1.34122134757575e-11 6.307356705748167e-10  0.
-2.1307647682404667e-11 6.044827048518508e-10  0.
-3.156391708244699e-11 5.643238684720003e-10  0.
-4.373816027985316e-11 5.069564835908019e-10  0.
-5.7175035863254495e-11 4.30609297257236e-10  0.
-7.67992823726474e-11 3.4233204317688386e-10  0.
-2.0210805262587696e-10 3.612181555184371e-10  0.
0.0 4.234864521056908e-09  0.
-1.34913701713921e-17 4.234864514203955e-09  0.
-1.0112469703046225e-16 4.2348644533881866e-09  0.
-6.478394543809885e-16 4.23486403688523e-09  0.
-3.5714820389947276e-15 4.2348615832718356e-09  0.
-1.6935189090103964e-14 4.234849161520194e-09  0.
-6.93684579200997e-14 4.234794978961026e-09  0.
-2.4753720183528666e-13 4.234589925342397e-09  0.
-7.775429157525408e-13 4.233909726624018e-09  0.
-2.1715003222127196e-12 4.231911756672133e-09  0.
-5.4430549443624365e-12 4.22666354228386e-09  0.
-1.2345415263378169e-11 4.2142283984203586e-09  0.
-2.5519654692750496e-11 4.187447788287839e-09  0.
-4.837141288467007e-11 4.134682716570919e-09  0.
-8.451632062690528e-11 4.039036193121097e-09  0.
-1.367276848628207e-10 3.878763619536296e-09  0.
-2.055904490483287e-10 3.6294958074210664e-09  0.
-2.883965080906392e-10 3.268616275349403e-09  0.
-3.8123632328853605e-10 2.783914472940893e-09  0.
-5.203232792241331e-10 2.2265773579420245e-09  0.
-1.336698031463227e-09 2.3721410393995456e-09  0.
0.0 2.3086817246591145e-08  0.
-3.8331797051782954e-17 2.3086817228616603e-08  0.
-3.0530881111481665e-16 2.3086817060390132e-08  0.
-2.0891683935303118e-15 2.308681583130533e-08  0.
-1.2340755275766665e-14 2.308680807378284e-08  0.
-6.274355489912634e-14 2.308676591512841e-08  0.
-2.7484631334990296e-13 2.308656879859499e-08  0.
-1.0432343247068685e-12 2.3085772625484557e-08  0.
-3.4623755610022064e-12 2.308297211205974e-08  0.
-1.0147633073557906e-11 2.3074308548580227e-08  0.
-2.651718443299298e-11 2.3050504924608162e-08  0.
-6.23253791255191e-11 2.29918820511356e-08  0.
-1.327783221806022e-10 2.2861415215067927e-08  0.
-2.5813190129514037e-10 2.2597143214043776e-08  0.
-4.6060760442764763e-10 2.2106905405818898e-08  0.
-7.581860725628752e-10 2.1269584404992013e-08  0.
-1.1562682614190179e-09 1.994684515829768e-08  0.
-1.6409469204070973e-09 1.800800958965361e-08  0.
-2.1937509791997557e-09 1.538418864521726e-08  0.
-3.046712952585772e-09 1.2401583314677162e-08  0.
-7.59502163898324e-09 1.3371631670397266e-08  0.
0.0 1.0608722896385084e-07  0.
-9.894036321450797e-17 1.0608722892118773e-07  0.
-8.310151512495989e-16 1.0608722850296152e-07  0.
-6.026035052234976e-15 1.0608722526862236e-07  0.
-3.7847614128592555e-14 1.0608720357657464e-07  0.
-2.0492923799228508e-13 1.0608707801002906e-07  0.
-9.550549526370151e-13 1.0608645257371188e-07  0.
-3.841351116171574e-12 1.060837697560616e-07  0.
-1.3428901579894647e-11 1.0607380319494871e-07  0.
-4.1193793998892704e-11 1.0604144626345493e-07  0.
-1.1194697111113581e-10 1.059487517263462e-07  0.
-2.720247981890285e-10 1.0571218895537215e-07  0.
-5.958969198689572e-10 1.0516970890520558e-07  0.
-1.1854933741439717e-09 1.040432353836777e-07  0.
-2.155526179997557e-09 1.0191070291509637e-07  0.
-3.6023093572797866e-09 9.820824746471486e-08  0.
-5.5606500134369355e-09 9.228292825919172e-08  0.
-7.970847681700199e-09 8.35122296011643e-08  0.
-1.077203181715471e-08 7.159449601753178e-08  0.
-1.5244080565971216e-08 5.833801984553109e-08  0.
-3.658878906795539e-08 6.386170464846156e-08  0.
0.0 4.038200973979863e-07  0.
-2.336023171171285e-16 4.038200973058664e-07  0.
-2.055069210194987e-15 4.0382009636444863e-07  0.
-1.5679272199997565e-14 4.0382008871426247e-07  0.
-1.0394423473846107e-13 4.038200346074201e-07  0.
-5.952610751705274e-13 4.0381970345687147e-07  0.
-2.9338748258908508e-12 4.038179582791765e-07  0.
-1.2444530265879208e-11 4.03810052717423e-07  0.
-4.56319641145333e-11 4.03779188962015e-07  0.
-1.4586227221644235e-10 4.036745951848465e-07  0.
-4.104723240132371e-10 4.033638669049976e-07  0.
-1.026552723702998e-09 4.0254678871211665e-07  0.
-2.3021918036842373e-09 4.0062709758526854e-07  0.
-4.6659831682481716e-09 3.965640072620547e-07  0.
-8.607745553425963e-09 3.8875870340023387e-07  0.
-1.4543269889267613e-08 3.750601071716031e-07  0.
-2.2635107731898887e-08 3.529693546084368e-07  0.
-3.266671292743375e-08 3.201237138715398e-07  0.
-4.457134569297266e-08 2.756239241907005e-07  0.
-6.433720093087587e-08 2.2808879663904229e-07  0.
-1.4716464386933417e-07 2.5458345046158247e-07  0.
0.0 1.2469188654394026e-06  0.
-5.070211953006432e-16 1.2469188652575764e-06  0.
-4.644505168689664e-15 1.2469188633308462e-06  0.
-3.704299510091033e-14 1.246918846984522e-06  0.
-2.57473035599185e-13 1.2469187258909585e-06  0.
-1.5491631513046735e-12 1.2469179477181256e-06  0.
-8.025843575622563e-12 1.2469136370202067e-06  0.
-3.5712650575484076e-11 1.2468931371343516e-06  0.
-1.36717961730952e-10 1.2468094702183699e-06  0.
-4.531693128937738e-10 1.2465150775570686e-06  0.
-1.3129825620675327e-09 1.2456142513846458e-06  0.
-3.358947350095336e-09 1.2431919546247142e-06  0.
-7.659791809192912e-09 1.2374114550245758e-06  0.
-1.5708119243718873e-08 1.225054071281561e-06  0.
-2.9192826788697288e-08 1.2011946534665066e-06  0.
-4.952190214269624e-08 1.1592733593540501e-06  0.
-7.719714418292879e-08 1.0918132358169714e-06  0.
-1.115531150308927e-07 9.920745081295845e-07  0.
-1.5328542291772328e-07 8.59208322228028e-07  0.
-2.2573503150490174e-07 7.279595451572744e-07  0.
-4.854341058388197e-07 8.331018520990136e-07  0.
0.0 3.050032591408613e-06  0.
-1.014734477018335e-15 3.050032591080629e-06  0.
-9.628615525624383e-15 3.050032587493196e-06  0.
-7.981300456449607e-14 3.0500325558957793e-06  0.
-5.780778177756939e-13 3.05003231220885e-06  0.
-3.631674228172907e-12 3.050030678239568e-06  0.
-1.9659412914600953e-11 3.0500212230091234e-06  0.
-9.12792402804389e-11 3.0499742872570483e-06  0.
-3.6309995593656835e-10 3.049775056047774e-06  0.
-1.242005430153305e-09 3.0490509539095063e-06  0.
-3.6833695736155037e-09 3.0467828127999626e-06  0.
-9.570629434875966e-09 3.0405978463926423e-06  0.
-2.201220070245918e-08 3.025757163342691e-06  0.
-4.525730334343037e-08 2.994098859557162e-06  0.
-8.391381254030287e-08 2.933488005008687e-06  0.
-1.4148091008628236e-07 2.82844745812546e-06  0.
-2.18714648897007e-07 2.6624495149367053e-06  0.
-3.1375265704589205e-07 2.422850682015605e-06  0.
-4.324317374277679e-07 2.117837351860583e-06  0.
-6.484564388654396e-07 1.8631225544197712e-06  0.
-1.2877756502945527e-06 2.2002339700858547e-06  0.
0.0 5.796773841834392e-06  0.
-1.8767818410799006e-15 5.796773841294311e-06  0.
-1.835926602435194e-14 5.7967738352229715e-06  0.
-1.5733498871597837e-13 5.79677377998397e-06  0.
-1.1808471811011927e-12 5.796773338865103e-06  0.
-7.701250810478816e-12 5.796770270173218e-06  0.
-4.331390207993759e-11 5.796751826004296e-06  0.
-2.0874446946222388e-10 5.796656774931342e-06  0.
-8.587949729435956e-10 5.796239197022341e-06  0.
-3.017847202273644e-09 5.794678708181468e-06  0.
-9.111875607960201e-09 5.789702630733611e-06  0.
-2.3878981910239716e-08 5.776045949654959e-06  0.
-5.4926367355093066e-08 5.743425174267356e-06  0.
-1.1206823485704706e-07 5.674883336909041e-06  0.
-2.0496164955313833e-07 5.546819784926754e-06  0.
-3.3915819503690585e-07 5.332073434911717e-06  0.
-5.133039352127714e-07 5.00643553730786e-06  0.
-7.22662252356079e-07 4.561922570733227e-06  0.
-9.933342548597455e-07 4.0540050435659114e-06  0.
-1.506383087784129e-06 3.7907383199710434e-06  0.
-2.7022387504641447e-06 4.636398906209154e-06  0.
0.0 8.62572927744278e-06  0.
-3.218897528183415e-15 8.625729276629092e-06  0.
-3.232333385963065e-14 8.625729267262157e-06  0.
-2.850294844446671e-13 8.625729179629409e-06  0.
-2.2055380775291524e-12 8.625728458580693e-06  0.
-1.4853743922135604e-11 8.625723281384839e-06  0.
-8.633941278187948e-11 8.625691130909237e-06  0.
-4.297472875400193e-10 8.62551999034913e-06  0.
-1.8204247553831223e-09 8.624745385786374e-06  0.
-6.5453145114657525e-09 8.621781076526409e-06  0.
-2.002912905786348e-08 8.612199317773124e-06  0.
-5.261202464584534e-08 8.585900144902038e-06  0.
-1.200544583193512e-07 8.52395033586016e-06  0.
-2.4079229446683663e-07 8.397218631075383e-06  0.
-4.29382393301318e-07 8.169731038522019e-06  0.
-6.88737411061137e-07 7.807746162041859e-06  0.
-1.006807547487442e-06 7.295509494986826e-06  0.
-1.3759657968896125e-06 6.666759700250928e-06  0.
-1.874472282337615e-06 6.115003833190865e-06  0.
-2.8282283460329322e-06 6.263373980024058e-06  0.
-4.485147007271596e-06 7.854266277577903e-06  0.
0.0 1.0817691616848849e-05  0.
-5.146337379241466e-15 1.0817691615719668e-05  0.
-5.2845430899211476e-14 1.0817691602457085e-05  0.
-4.77475362372374e-13 1.0817691475411924e-05  0.
-3.792005309618916e-12 1.0817690403246588e-05  0.
-2.6247541059068886e-11 1.0817682495710605e-05  0.
-1.569251267924037e-10 1.0817632006155128e-05  0.
-8.030257009317055e-10 1.0817355701399126e-05  0.
-3.488271157433426e-09 1.0816072676381968e-05  0.
-1.278814123611407e-08 1.0811062088082197e-05  0.
-3.952300788040991e-08 1.0794696735384729e-05  0.
-1.0356067443940691e-07 1.0749971558409121e-05  0.
-2.3279596552987744e-07 1.0646864507994e-05  0.
-4.55150076303017e-07 1.0443771871128464e-05  0.
-7.839744746604773e-07 1.0097971450539098e-05  0.
-1.2071626712596131e-06 9.584422251795434e-06  0.
-1.6910774974704461e-06 8.923070838345976e-06  0.
-2.2367495565056853e-06 8.245370829572187e-06  0.
-3.0170437731093176e-06 7.98927362787442e-06  0.
-4.405424192556329e-06 9.019861184362338e-06  0.
-6.144699787677367e-06 1.1141268167410536e-05  0.
0.0 1.3007624273948602e-05  0.
-7.69858504088741e-15 1.3007624272507578e-05  0.
-8.055811492785552e-14 1.3007624255292452e-05  0.
-7.429630106406726e-13 1.3007624087076769e-05  0.
-6.031266328678638e-12 1.3007622636904191e-05  0.
-4.272395839896014e-11 1.3007611697462315e-05  0.
-2.6159277387915913e-10 1.3007540194091325e-05  0.
-1.3705369228721963e-09 1.3007139616033496e-05  0.
-6.082764878815788e-09 1.300523852869249e-05  0.
-2.267083735373814e-08 1.2997684669109972e-05  0.
-7.05947704311502e-08 1.297280847407456e-05  0.
-1.8395437890866587e-07 1.2905283416441163e-05  0.
-4.052669441212462e-07 1.2753744266388294e-05  0.
-7.672604960755992e-07 1.2468978714012647e-05  0.
-1.2689892027744935e-06 1.2013973792063667e-05  0.
-1.867605357951232e-06 1.139160302013941e-05  0.
-2.5179808754520632e-06 1.0678293411541449e-05  0.
-3.2672703656957567e-06 1.0142700536429869e-05  0.
-4.404448677039764e-06 1.0450908052788176e-05  0.
-6.060565143114719e-06 1.2198610618819879e-05  0.
-7.643998852585314e-06 1.4044453181992204e-05  0.
0.0 1.5607836514576522e-05  0.
-1.0787890113742094e-14 1.5607836512904035e-05  0.
-1.1465905491538856e-13 1.5607836492638162e-05  0.
-1.0755537634992442e-12 1.5607836291305613e-05  0.
-8.890819606706499e-12 1.5607834524572162e-05  0.
-6.419621927437593e-11 1.5607820944391356e-05  0.
-4.00904151160064e-10 1.5607730430377446e-05  0.
-2.1419774241920163e-09 1.560721331597174e-05  0.
-9.67896700490624e-09 1.5604713734153883e-05  0.
-3.657575568302853e-08 1.559463526526653e-05  0.
-1.14551802819467e-07 1.55612201457454e-05  0.
-2.9639962535252516e-07 1.547120175920734e-05  0.
-6.381166984978564e-07 1.5275034898485156e-05  0.
-1.1647034221937198e-06 1.4925887750298315e-05  0.
-1.8463921686066511e-06 1.440670000063336e-05  0.
-2.609678992526038e-06 1.3755483682890321e-05  0.
-3.4388464633841003e-06 1.3117508988125353e-05  0.
-4.498227407237878e-06 1.2891697136763223e-05  0.
-6.065893562673688e-06 1.3755075174509104e-05  0.
-7.837099135126345e-06 1.5381365612240963e-05  0.
-9.252758045857492e-06 1.6335884428520236e-05  0.
0.0 1.791636054932693e-05  0.
-1.4184052676996701e-14 1.791636054757586e-05  0.
-1.5265389365065458e-13 1.7916360526116203e-05  0.
-1.451563743103241e-12 1.7916360310091668e-05  0.
-1.21745030662524e-11 1.7916358387437395e-05  0.
-8.926397300327182e-11 1.7916343385630873e-05  0.
-5.663592833661688e-10 1.7916241823591306e-05  0.
-3.0740816022769866e-09 1.7915652403245685e-05  0.
-1.4094052094899755e-08 1.7912760869263977e-05  0.
-5.385807628247532e-08 1.7900962454482626e-05  0.
-1.6941213191467767e-07 1.786163309131471e-05  0.
-4.3512556786407506e-07 1.7756447480396505e-05  0.
-9.149337730681704e-07 1.7533755782463502e-05  0.
-1.607238155031289e-06 1.7159707189076026e-05  0.
-2.447623881497962e-06 1.664569851230356e-05  0.
-3.3700009187861347e-06 1.6054729465374836e-05  0.
-4.429074399929975e-06 1.559010357347067e-05  0.
-5.9015608959011555e-06 1.57375770408001e-05  0.
-7.752866356738065e-06 1.6854770092794558e-05  0.
-9.449114199701731e-06 1.7829369112555935e-05  0.
-1.0649574244249983e-05 1.833332337231865e-05  0.
0.0 2.0269435932947027e-05  0.
-1.7529132660370948e-14 2.0269435931327642e-05  0.
-1.9047386845506155e-13 2.0269435911309807e-05  0.
-1.830154257067933e-12 2.026943570776101e-05  0.
-1.552149524852274e-11 2.026943387651338e-05  0.
-1.1514916059413752e-10 2.0269419423743114e-05  0.
-7.395363663804909e-10 2.0269320407331108e-05  0.
-4.063044595701381e-09 2.026873881923121e-05  0.
-1.8838363622736038e-08 2.026585316228912e-05  0.
-7.26139548199533e-08 2.0253970131593484e-05  0.
-2.291532430097617e-07 2.0214192298823085e-05  0.
-5.846946534915898e-07 2.0108455052601646e-05  0.
-1.203303787543964e-06 1.9890228011060846e-05  0.
-2.0388509650054413e-06 1.9543587990198234e-05  0.
-2.9996489295623494e-06 1.9105851066665547e-05  0.
-4.094248194125629e-06 1.8648859430807982e-05  0.
-5.43443514354497e-06 1.8394726557731954e-05  0.
-7.181079822946015e-06 1.8811310794256945e-05  0.
-8.953755789448751e-06 1.971238135180882e-05  0.
-1.0285154113864896e-05 2.016837966344698e-05  0.
-1.154964521918007e-05 2.0942734112425008e-05  0.
0.0 2.2712613495789627e-05  0.
-2.0376348630940966e-14 2.2712613494538898e-05  0.
-2.229175825544013e-13 2.2712613478981725e-05  0.
-2.1576959457247514e-12 2.2712613319643474e-05  0.
-1.844360259540748e-11 2.2712611875012218e-05  0.
-1.3796699058030706e-10 2.2712600379761865e-05  0.
-8.937313200782884e-10 2.2712520949680033e-05  0.
-4.952550575325231e-09 2.271205035921785e-05  0.
-2.314623381383749e-08 2.2709696207165386e-05  0.
-8.977217657785252e-08 2.2699936391990718e-05  0.
-2.839520795497716e-07 2.2667160240342163e-05  0.
-7.20847525566612e-07 2.2580399929008175e-05  0.
-1.4585502544724047e-06 2.240475558178155e-05  0.
-2.3993626191848445e-06 2.2138579676348694e-05  0.
-3.4389303239186002e-06 2.1829186752041857e-05  0.
-4.706143809103626e-06 2.1541375744118293e-05  0.
-6.2868503584166365e-06 2.1457654127373014e-05  0.
-7.975684827890228e-06 2.1879950694210847e-05  0.
-9.520063674379514e-06 2.239106546242048e-05  0.
-1.0651510112429179e-05 2.2600016990756743e-05  0.
-1.2090491606049161e-05 2.3291811240520863e-05  0.
0.0 2.5050611245489884e-05  0.
-2.2295991364906853e-14 2.5050611244805895e-05  0.
-2.449055068032561e-13 2.505061123626737e-05  0.
-2.3809301394290907e-12 2.5050611148449812e-05  0.
-2.0447149891171415e-11 2.505061034869703e-05  0.
-1.5371201144723527e-10 2.505060395467281e-05  0.
-1.000839302478305e-09 2.5050559554254628e-05  0.
-5.574575349679041e-09 2.5050295180024198e-05  0.
-2.617773947450987e-08 2.5048966326587075e-05  0.
-1.0190715380089284e-07 2.5043435645038616e-05  0.
-3.2277981843818964e-07 2.502482734140539e-05  0.
-8.168310427178998e-07 2.4975698200228235e-05  0.
-1.6350155734296033e-06 2.487743268001504e-05  0.
-2.638127437139899e-06 2.4733110592424655e-05  0.
-3.719195538270121e-06 2.4576149079848387e-05  0.
-5.110021202382749e-06 2.4447808160099617e-05  0.
-6.820669330901098e-06 2.443804449374351e-05  0.
-8.32688195550072e-06 2.465230978721012e-05  0.
-9.728238657730924e-06 2.492407364025945e-05  0.
-1.1089740054987206e-05 2.502690787381179e-05  0.
-1.2303153665591721e-05 2.513853217336359e-05  0.
0.0 2.7449999999999932e-05  0.
-2.2974633116484392e-14 2.7449999999999932e-05  0.
-2.5269829073738367e-13 2.7449999999999932e-05  0.
-2.46026277247346e-12 2.7449999999999932e-05  0.
-2.116124701722611e-11 2.7449999999999932e-05  0.
-1.5934120672772716e-10 2.7449999999999932e-05  0.
-1.0392567288248343e-09 2.7449999999999932e-05  0.
-5.798413123812403e-09 2.7449999999999932e-05  0.
-2.7272005466879137e-08 2.7449999999999932e-05  0.
-1.0629821027816032e-07 2.7449999999999932e-05  0.
-3.368429296826001e-07 2.7449999999999932e-05  0.
-8.515098293049448e-07 2.7449999999999932e-05  0.
-1.6981554090736377e-06 2.7449999999999932e-05  0.
-2.721703995431974e-06 2.7449999999999932e-05  0.
-3.815096786306159e-06 2.7449999999999932e-05  0.
-5.24828351651281e-06 2.7449999999999932e-05  0.
-6.9958181927175605e-06 2.7449999999999932e-05  0.
-8.43328729285054e-06 2.7449999999999932e-05  0.
-9.78311110533567e-06 2.7449999999999932e-05  0.
-1.132062248605283e-05 2.7449999999999932e-05  0.
-1.2327483087576627e-05 2.7449999999999932e-05  0.
</DataArray>
<DataArray type="Float64" Name="sigma_xx" NumberOfComponents="1" format="ascii" >
5.171314954033333 
5.171313777196927 
5.171307881912666 
5.1712844562068465 
5.17120257725878 
5.170946559829302 
5.170222050487892 
5.16835501063184 
5.163943050945361 
5.154312432420481 
5.134790559413458 
5.097875233062153 
5.032497718548965 
4.92369809368398 
4.753071680685393 
4.5002919724090855 
4.1457757782303855 
3.6737160424848962 
3.0646579385340535 
2.067041748876618 
1.4114172275370143 
29.431821924053015 
29.431818610037283 
29.431799597467986 
29.43171708014168 
29.4314077275981 
29.430378595263193 
29.4273064416206 
29.419010488807004 
29.398571260719198 
29.352298602791638 
29.255458322552375 
29.067151069428466 
28.72544079823846 
28.14462876088441 
27.216989023637332 
25.82108333260002 
23.83736557032278 
21.16736734225632 
17.702422316911985 
12.267206023208738 
8.77997576864686 
249.45562654421485 
249.4556119614354 
249.45551913568832 
249.45508552143272 
249.45333497172751 
249.44711969343547 
249.42750138645656 
249.37188277118761 
249.22897726709073 
248.8935393341051 
248.16940761285258 
246.72333874820032 
244.03888179147506 
239.38672963352826 
231.8334927420284 
220.30905264813765 
203.741447363237 
181.2253091704185 
151.7308426457475 
105.15845208225456 
75.23780675144917 
1830.1069218074058 
1830.1068641313195 
1830.1064714787424 
1830.1044949264874 
1830.0959140182808 
1830.0634091694683 
1829.9547926703403 
1829.6312827958955 
1828.7638982261706 
1826.6524321852712 
1821.9503316818646 
1812.309255891375 
1794.0068949146012 
1761.6854029067758 
1708.3709317605717 
1625.9448452793363 
1506.1436608343465 
1341.8087144834162 
1124.3200092464485 
776.61458806888 
552.3098482063112 
11605.02802687313 
11605.027824768129 
11605.026363808996 
11605.018467697455 
11604.981730800597 
11604.833411921198 
11604.308976864704 
11602.668013294122 
11598.078273933326 
11586.495513885016 
11559.905187455417 
11503.974325308138 
11395.511167405777 
11200.55072172665 
10874.23776702234 
10363.66699510571 
9614.263029633637 
8577.559148967292 
7191.052215899104 
4945.093558195166 
3490.0185092168176 
62783.99315744474 
62783.99252464538 
62783.98769020142 
62783.95981524352 
62783.82149915716 
62783.22819817104 
62781.01311284477 
62773.74547651313 
62752.57755099237 
62697.306996037354 
62566.78371234223 
62285.79823099876 
61730.55976468331 
60717.37620742255 
59001.14890736439 
56290.34916467544 
52281.52141451556 
46698.68240449458 
39154.22796061107 
26763.902735402175 
18701.407124338533 
285206.9043984272 
285206.9026092473 
285206.8882546631 
285206.80052731 
285206.3388812886 
285204.24408657313 
285196.0143557929 
285167.7959469361 
285082.49783313886 
284852.9168002099 
284297.422332344 
283078.7947743995 
280636.1793887379 
276132.60112274706 
268448.7370382043 
256253.4014550032 
238159.920797723 
212878.11981715861 
178381.59673428384 
120927.7847750739 
83380.62819853716 
1066320.6781005182 
1066320.6734994599 
1066320.6349410366 
1066320.386757052 
1066319.0098408102 
1066312.4329917503 
1066285.3548371317 
1066188.709011939 
1065886.926617959 
1065053.943416047 
1063001.2095058286 
1058442.0790648554 
1049239.119169187 
1032224.5591806469 
1003215.3625024765 
957315.6581804018 
889504.9458248953 
795002.7056181638 
665023.9104969173 
445588.20946643804 
301625.0888005055 
3196567.068248334 
3196567.0574223883 
3196566.9631203883 
3196566.3276586165 
3196562.6321503343 
3196544.1465955414 
3196464.734902806 
3196170.9296885375 
3195227.8321747677 
3192574.67185453 
3185964.320905664 
3171230.8482368016 
3141577.6229922576 
3087221.615557799 
2995739.0396500295 
2853289.0827830327 
2646370.471966682 
2361731.171268371 
1968334.5820247105 
1296348.7339943843 
854305.7020963912 
7420488.674012379 
7420488.65060709 
7420488.439668496 
7420486.959809111 
7420477.988552524 
7420431.233064132 
7420222.60103702 
7419425.762700088 
7416808.780742422 
7409352.170158474 
7390721.5785915 
7349476.894674182 
7267749.177751979 
7121442.21731123 
6882636.559194626 
6523934.958155553 
6022323.394772425 
5353184.540252671 
4428533.684153134 
2838483.5748116113 
1793000.840147656 
12769822.18042297 
12769822.133791283 
12769821.700826589 
12769818.554705199 
12769798.776330587 
12769691.912545022 
12769198.812958667 
12767262.41079675 
12760783.636893693 
12742196.790568434 
12696011.20670898 
12595552.319648465 
12402371.69318394 
12070731.64090224 
11557891.564465512 
10835992.222400034 
9896359.394985598 
8716097.199576156 
7096327.832734026 
4333307.84636973 
2533994.6440084674 
15655483.913234465 
15655483.827319378 
15655483.008686049 
15655476.876060124 
15655437.086149886 
15655215.231580846 
15654161.066885795 
15649920.20371364 
15635517.076918555 
15594114.824842481 
15492579.7330398 
15277949.09677587 
14883287.209164286 
14246700.241744649 
13339461.73679224 
12188132.154293539 
10861209.026239797 
9359271.649924263 
7317836.512595596 
4019987.3301248187 
1959074.0465807416 
14094431.25992404 
14094431.112842554 
14094429.679572979 
14094418.655898735 
14094345.14929565 
14093923.947978802 
14091870.661966303 
14083434.743256917 
14054429.55481374 
13971173.898990663 
13770904.093534946 
13363690.765784767 
12658178.831319785 
11611986.758887151 
10280645.17485873 
8829506.011409499 
7443556.3039226085 
6078888.784235356 
4174636.423053485 
1636005.5515387857 
294497.45704596443 
12296187.345219329 
12296187.110263046 
12296184.776022442 
12296166.411908671 
12296041.044886202 
12295305.528851777 
12291639.444017408 
12276299.03373351 
12223009.199736526 
12070592.709045768 
11712584.599831818 
11019025.390329244 
9904157.89327412 
8419558.504929176 
6798173.151915495 
5369422.7494928 
4315093.842440369 
3273913.4907967295 
1559166.672616611 
47765.55370140681 
-359815.62859705184 
13444764.975880513 
13444764.624827728 
13444761.079642586 
13444732.6498652 
13444534.664067512 
13443349.603845665 
13437329.858817596 
13411743.429522779 
13322102.353701035 
13066959.442369994 
12483468.754264103 
11415855.082416771 
9851260.96054626 
8030506.461882258 
6406744.568094097 
5331495.157269048 
4652188.545498596 
3487645.4762886306 
1447549.5275998337 
65799.46196302003 
-138942.8198415623 
13778314.540994158 
13778314.049492769 
13778309.01812857 
13778268.025967188 
13777977.806887293 
13776211.553814555 
13767096.829807237 
13727845.769852785 
13589377.534131218 
13197374.244487727 
12325399.929214217 
10828442.439136263 
8867100.792274939 
6936236.022642006 
5594346.185592899 
4914251.970633407 
4089948.515633274 
2227401.539485408 
7503.679133766564 
-792445.9612468982 
-628635.8140705628 
13082903.71567507 
13082903.069695313 
13082896.384301197 
13082841.217649285 
13082445.424108122 
13080004.140603568 
13067244.077965913 
13011708.593085315 
12814704.396742586 
12259852.093503505 
11057838.595930383 
9126648.711081976 
6908105.398814399 
5133135.787318396 
4147346.0843792553 
3498146.6755890423 
1971784.4724549933 
-391839.02266555466 
-1667757.559320242 
-876366.3856217009 
1951.4940500096418 
13461725.094811935 
13461724.296849284 
13461715.968917921 
13461646.573039852 
13461143.590277534 
13458009.014126161 
13441463.266078694 
13368857.762566172 
13110201.692304695 
12384934.136074107 
10849602.08144307 
8533937.79117933 
6235036.088503099 
4816904.436174649 
4000973.1555662453 
2870901.726575342 
865022.4638989619 
-1002779.5654077523 
-692627.5464552538 
229811.6347160712 
241108.99590456812 
13419309.647160847 
13419308.719816085 
13419298.983929623 
13419217.292919803 
13418620.911031898 
13414877.06027915 
13394976.917491216 
13307140.557109522 
12993279.990938717 
12116190.861503186 
10292445.519518249 
7683801.927369218 
5442789.856158889 
4441351.062441446 
3524985.173320258 
1646132.9494545201 
-7674.328191145789 
-627635.1122782154 
265220.6442733817 
34723.486659535905 
-1196979.3735545264 
13296107.224540506 
13296106.209958516 
13296095.520403346 
13296005.45711706 
13295345.121919993 
13291181.716521382 
13268959.034191035 
13170527.953916155 
12818174.474575177 
11835582.023375563 
9815475.66641212 
7026834.560661301 
4886149.261815705 