<?xml version="1.0"?>
<VTKFile type="UnstructuredGrid" version="0.1" byte_order="LittleEndian" compressor="vtkZLibDataCompressor">
<UnstructuredGrid>
<Piece NumberOfPoints="441" NumberOfCells="400">
<PointData>
<DataArray type="Float64" Name="displacement" NumberOfComponents="3" format="ascii" >
0.0 7.125661663012924e-12  0.
-1.341492116392455e-18 7.125660628612216e-12  0.
-6.000756555072397e-18 7.12565490521257e-12  0.
-2.3167875658008097e-17 7.125631824638999e-12  0.
-7.97636810915195e-17 7.125549284447335e-12  0.
-2.468522235597098e-16 7.125284598532961e-12  0.
-6.929742222661909e-16 7.124516139370962e-12  0.
-1.777230728038862e-15 7.122481279015132e-12  0.
-4.19028261427749e-15 7.117534068094907e-12  0.
-9.133074327486402e-15 7.106428923015865e-12  0.
-1.848805558605528e-14 7.083300137065036e-12  0.
-3.490030659149078e-14 7.038418861979877e-12  0.
-6.165020926726796e-14 6.95698010785228e-12  0.
-1.0221338122985995e-13 6.818367971609833e-12  0.
-1.5946166678928767e-13 6.596479300095963e-12  0.
-2.346020300688e-13 6.2616469989658566e-12  0.
-3.2609888553698076e-13 5.784423090439279e-12  0.
-4.2908981168461715e-13 5.141010250611862e-12  0.
-5.374523042618304e-13 4.321670854805198e-12  0.
-6.842491343106391e-13 3.380124739264758e-12  0.
-1.591597966913117e-12 3.414644769556269e-12  0.
0.0 3.026366764274092e-11  0.
-3.4171610032179597e-18 3.0263665390076085e-11  0.
-1.6512927036412887e-17 3.0263651792705e-11  0.
-6.820012661268909e-17 3.026359230411024e-11  0.
-2.49472495764595e-16 3.026336391330662e-11  0.
-8.154264488514012e-16 3.0262583062840135e-11  0.
-2.402558677308016e-15 3.026018419585711e-11  0.
-6.4304995133225685e-15 3.025350795973632e-11  0.
-1.5743276997374353e-14 3.0236552904041295e-11  0.
-3.5465612271029396e-14 3.0197011398353345e-11  0.
-7.389993393549314e-14 3.0111862281593654e-11  0.
-1.430660324845333e-13 2.994175103634297e-11  0.
-2.583236055768293e-13 2.9625169623703056e-11  0.
-4.3647578338442215e-13 2.907441209154374e-11  0.
-6.920898886594368e-13 2.817601399120672e-11  0.
-1.0323395753804768e-12 2.6798389534814605e-11  0.
-1.4515958292053636e-12 2.480820205498392e-11  0.
-1.9281409755128177e-12 2.2095180353046766e-11  0.
-2.4365126155635522e-12 1.861352600985081e-11  0.
-3.1791485397676092e-12 1.4670737911360785e-11  0.
-8.332860339987289e-12 1.5292231727659002e-11  0.
0.0 2.22142019901876e-10  0.
-1.451686338423277e-17 2.2214201103527424e-10  0.
-7.532537668219209e-17 2.2214195454770063e-10  0.
-3.3382818221014295e-16 2.2214168885500184e-10  0.
-1.30231387041033e-15 2.2214059616640333e-10  0.
-4.5122911731219766e-15 2.2213661889194195e-10  0.
-1.4002756348905797e-14 2.221236962846087e-10  0.
-3.9238723538370155e-14 2.2208589941543326e-10  0.
-1.000162615004936e-13 2.2198561582210639e-10  0.
-2.3341486739533013e-13 2.2174258142500613e-10  0.
-5.015873466564041e-13 2.2120135681330551e-10  0.
-9.974255790597798e-13 2.200879900269499e-10  0.
-1.8432243992719147e-12 2.1796271303233865e-10  0.
-3.1772072747603826e-12 2.1418341432824201e-10  0.
-5.124527575749401e-12 2.0790156028968224e-10  0.
-7.75502646592984e-12 1.9811340308860108e-10  0.
-1.1036737601521685e-11 1.8378129232439137e-10  0.
-1.4806056777465387e-11 1.6402620738038352e-10  0.
-1.8865320621291143e-11 1.3846770295258284e-10  0.
-2.4818614324982712e-11 1.0947863195502356e-10  0.
-6.456901879239118e-11 1.1515671493498906e-10  0.
0.0 1.4500373633342305e-09  0.
-5.445074586732963e-17 1.450037332270168e-09  0.
-3.01730761790266e-16 1.450037122432257e-09  0.
-1.4299902784741156e-15 1.450036065537386e-09  0.
-5.9448656420601236e-15 1.45003141942383e-09  0.
-2.1832752030039173e-14 1.4500134334054834e-09  0.
-7.140144186019024e-14 1.4499516359431423e-09  0.
-2.096202829261561e-13 1.4497616499560317e-09  0.
-5.56717748869047e-13 1.4492348437176196e-09  0.
-1.3468347383037761e-12 1.4479077405579868e-09  0.
-2.9864679360396065e-12 1.4448506289564006e-09  0.
-6.102409726277634e-12 1.4383740577497784e-09  0.
-1.1544963470115896e-11 1.4256924720565543e-09  0.
-2.0304670835452336e-11 1.4026423218564131e-09  0.
-3.331525618357338e-11 1.363605594955577e-09  0.
-5.11497826215652e-11 1.301808028651222e-09  0.
-7.367708630755872e-11 1.2101117146882161e-09  0.
-9.983259332942913e-11 1.0823389951188886e-09  0.
-1.2838377586363662e-10 9.157828769461421e-10  0.
-1.712240959377782e-10 7.278158406660556e-10  0.
-4.3588874232175557e-10 7.720953121715498e-10  0.
0.0 8.232977089671663e-09  0.
-1.8256639453444199e-16 8.232976992622045e-09  0.
-1.074709948126043e-15 8.232976301339597e-09  0.
-5.42389129034658e-15 8.2329725912639e-09  0.
-2.3960246983380865e-14 8.232955227661675e-09  0.
-9.31185738169048e-14 8.232883910710053e-09  0.
-3.2060114724466766e-13 8.232625216195339e-09  0.
-9.855107801003839e-13 8.231790090956727e-09  0.
-2.7258209013179066e-12 8.229371842104453e-09  0.
-6.833286929487287e-12 8.223043227119362e-09  0.
-1.5628104632334112e-11 8.207971857400643e-09  0.
-3.2798965955018187e-11 8.175109370522112e-09  0.
-6.349107525874602e-11 8.109146538778787e-09  0.
-1.1386983637668701e-10 7.986682167910744e-09  0.
-1.8994860696350723e-10 7.77551501071441e-09  0.
-2.9570450053031925e-10 7.436119486365574e-09  0.
-4.3087150781727394e-10 6.926121447019224e-09  0.
-5.894789617813255e-10 6.208184138592418e-09  0.
-7.652472135694841e-10 5.2663153558380284e-09  0.
-1.0358895968883938e-09 4.213219754882003e-09  0.
-2.568295515769714e-09 4.516079731007593e-09  0.
0.0 4.018206544381848e-08  0.
-5.519745012200414e-16 4.018206517145943e-08  0.
-3.4322591727260647e-15 4.018206313555803e-08  0.
-1.8349663648346097e-14 4.0182051561095425e-08  0.
-8.57832847068945e-14 4.018199416993328e-08  0.
-3.517063778647467e-13 4.018174505062649e-08  0.
-1.271653206620956e-12 4.018079400916235e-08  0.
-4.084394100550496e-12 4.017757887608727e-08  0.
-1.1743128889246716e-11 4.0167879961993235e-08  0.
-3.045101115249867e-11 4.0141570908982216e-08  0.
-7.17087857466182e-11 4.007693738940035e-08  0.
-1.5431508096606483e-10 3.993218854271621e-08  0.
-3.051449891256124e-10 3.9634951530586e-08  0.
-5.571737697001222e-10 3.907240206404835e-08  0.
-9.434517752381021e-10 3.808666715572582e-08  0.
-1.4870462789051718e-09 3.6481097157729825e-08  0.
-2.1890075356828284e-09 3.4041939749612503e-08  0.
-3.02074781670088e-09 3.057862801359724e-08  0.
-3.958126637158701e-09 2.6016082840241618e-08  0.
-5.445061467396701e-09 2.0997570882623554e-08  0.
-1.306910272625129e-08 2.2797500692972798e-08  0.
0.0 1.6627487901520036e-07  0.
-1.5159221464890692e-15 1.6627487832333445e-07  0.
-9.902773789600816e-15 1.6627487292260254e-07  0.
-5.577745199979916e-14 1.662748405863482e-07  0.
-2.7464118890291236e-13 1.6627467162870252e-07  0.
-1.1832642095843228e-12 1.662739000519984e-07  0.
-4.477701767003726e-12 1.6627081239252785e-07  0.
-1.4977686490683273e-11 1.6625992440502442e-07  0.
-4.462042983634975e-11 1.6622584110255354e-07  0.
-1.1929560449355418e-10 1.6613039620171452e-07  0.
-2.883333441671099e-10 1.658894807287318e-07  0.
-6.341772760265497e-10 1.653375622802707e-07  0.
-1.2769669384189109e-09 1.6418274285340912e-07  0.
-2.366462547959725e-09 1.619634801542195e-07  0.
-4.055406201756863e-09 1.5802677459230925e-07  0.
-6.453564423414662e-09 1.5155221469450229e-07  0.
-9.573314292483888e-09 1.4164175344839055e-07  0.
-1.3298920181680576e-08 1.2749470224984753e-07  0.
-1.7578375994209452e-08 1.0885976774730879e-07  0.
-2.4603264902832586e-08 8.893685083751933e-08  0.
-5.67291372664457e-08 9.812683679237687e-08  0.
0.0 5.738169991478462e-07  0.
-3.805772600535471e-15 5.738169975477928e-07  0.
-2.5981372075328624e-14 5.73816984564009e-07  0.
-1.5335030771446072e-13 5.738169031517033e-07  0.
-7.913858383133318e-13 5.738164572798641e-07  0.
-3.5675903394642772e-12 5.738143254286224e-07  0.
-1.4075597588751507e-11 5.738054213746933e-07  0.
-4.884553252771697e-11 5.737728100416429e-07  0.
-1.5015241306010264e-10 5.736673884521974e-07  0.
-4.120766438420304e-10 5.73364227471763e-07  0.
-1.017367098196846e-09 5.72582595638916e-07  0.
-2.2758869760042084e-09 5.707621160421785e-07  0.
-4.643018980850151e-09 5.669057812836178e-07  0.
-8.689238885330823e-09 5.59429884021008e-07  0.
-1.499580987335816e-08 5.460927212513123e-07  0.
-2.3980047961898518e-08 5.240854411588675e-07  0.
-3.5692359986610826e-08 4.903526421805635e-07  0.
-4.974215345321385e-08 4.42234805989389e-07  0.
-6.623994345656656e-08 3.7937267473755796e-07  0.
-9.440772959015095e-08 3.154712382733611e-07  0.
-2.0705658231757234e-07 3.552303854133281e-07  0.
0.0 1.6191948595310051e-06  0.
-8.774124698606789e-15 1.6191948561514873e-06  0.
-6.229137410002976e-14 1.6191948277658818e-06  0.
-3.8331035869690785e-13 1.619194642336307e-06  0.
-2.063186846094994e-12 1.6191935833142693e-06  0.
-9.689113746406446e-12 1.619188306890004e-06  0.
-3.969757803101669e-11 1.6191654053255201e-06  0.
-1.4235458081825964e-10 1.6190786604073023e-06  0.
-4.4954794663242006e-10 1.618790460800555e-06  0.
-1.2599299741624645e-09 1.6179443580710834e-06  0.
-3.1591152080032845e-09 1.6157313467437365e-06  0.
-7.14174330613807e-09 1.610532917749998e-06  0.
-1.4661069680816812e-08 1.599482508646376e-06  0.
-2.75098933199046e-08 1.5780779891384053e-06  0.
-4.746478795512382e-08 1.540057085569194e-06  0.
-7.572381069975093e-08 1.4777595073668782e-06  0.
-1.1232869642042112e-07 1.3831240643221167e-06  0.
-1.5618910906514665e-07 1.2496962121799044e-06  0.
-2.0909565918125067e-07 1.0794937357141289e-06  0.
-3.0350192268706333e-07 9.222111470344835e-07  0.
-6.251125315176178e-07 1.065439996396547e-06  0.
0.0 3.6563878203090223e-06  0.
-1.8628143750422874e-14 3.6563878137893017e-06  0.
-1.369031452638691e-13 3.656387757329203e-06  0.
-8.740609048239413e-13 3.6563873749155575e-06  0.
-4.883970316554939e-12 3.656385108265345e-06  0.
-2.3789169357143577e-11 3.656373393758444e-06  0.
-1.0081336621220192e-10 3.6563207779976586e-06  0.
-3.7213400205854584e-10 3.6561155023708955e-06  0.
-1.2020695478308518e-09 3.6554177426604654e-06  0.
-3.4226853205822017e-09 3.653338148029045e-06  0.
-8.662024381534721e-09 3.647859306925812e-06  0.
-1.9645883779282347e-08 3.6349922420690535e-06  0.
-4.025266411776694e-08 3.6078304418534782e-06  0.
-7.505049749546412e-08 3.555894871552509e-06  0.
-1.2822621683188383e-07 3.4652845510484923e-06  0.
-2.0207998130708042e-07 3.320053056037971e-06  0.
-2.958914249371267e-07 3.1049560266819207e-06  0.
-4.072339920803414e-07 2.8109275391425392e-06  0.
-5.463340909110322e-07 2.45620414105821e-06  0.
-8.062220967604913e-07 2.1898194415359807e-06  0.
-1.5342565219599598e-06 2.6095460486028735e-06  0.
0.0 6.50923737089495e-06  0.
-3.650397293505779e-14 6.509237359408866e-06  0.
-2.765413560834778e-13 6.509237257225628e-06  0.
-1.823617959713571e-12 6.509236542771848e-06  0.
-1.0530846360299685e-11 6.5092321674377845e-06  0.
-5.297670388985008e-11 6.5092088122334944e-06  0.
-2.31307403262234e-10 6.50910069360109e-06  0.
-8.756836661631156e-10 6.50866785330417e-06  0.
-2.8819365073493515e-09 6.507168561847012e-06  0.
-8.295929749449452e-09 6.502655344426418e-06  0.
-2.1062103517188567e-08 6.490759673120242e-06  0.
-4.757795719021698e-08 6.4630673451719016e-06  0.
-9.645347684382742e-08 6.405644141254761e-06  0.
-1.7695601053390006e-07 6.2986746798573105e-06  0.
-2.9610396435421006e-07 6.118268834563705e-06  0.
-4.555877807315532e-07 5.840714752604455e-06  0.
-6.505692450821175e-07 5.449185925797045e-06  0.
-8.77468002983446e-07 4.947393422403984e-06  0.
-1.1748556611849267e-06 4.414839997546753e-06  0.
-1.7516820866823853e-06 4.20930570312247e-06  0.
-3.02174960574476e-06 5.1789534029256275e-06  0.
0.0 9.267454991000537e-06  0.
-6.629390568373209e-14 9.267454972439771e-06  0.
-5.156823630639274e-13 9.267454803385607e-06  0.
-3.497836134168307e-12 9.267453588184422e-06  0.
-2.0788226651252887e-11 9.267445931095043e-06  0.
-1.0757572033667045e-10 9.267403886557929e-06  0.
-4.821484751790387e-10 9.267204029620542e-06  0.
-1.8656982168390577e-09 9.266385809722639e-06  0.
-6.234169524250686e-09 9.263507465851917e-06  0.
-1.8065650488256143e-08 9.254792705611982e-06  0.
-4.575534493056032e-08 9.231949401082089e-06  0.
-1.022301038498912e-07 9.179667789773848e-06  0.
-2.0338017101772914e-07 9.074253064638597e-06  0.
-3.636507817488412e-07 8.885380922516104e-06  0.
-5.896796299722901e-07 8.582177105372777e-06  0.
-8.754886757255403e-07 8.14314969203458e-06  0.
-1.2051359737761052e-06 7.569607457064262e-06  0.
-1.5786638352479335e-06 6.918080260224289e-06  0.
-2.102141244094422e-06 6.419564631563001e-06  0.
-3.119353781576839e-06 6.726234349228739e-06  0.
-4.798661510380174e-06 8.421419089543157e-06  0.
0.0 1.1398827199241113e-05  0.
-1.1220693329776702e-13 1.139882717153088e-05  0.
-8.930969947745399e-13 1.1398826913951909e-05  0.
-6.2078014692142774e-12 1.139882501762402e-05  0.
-3.782757691032718e-11 1.1398812770620517e-05  0.
-2.0063146591763583e-10 1.1398743855190792e-05  0.
-9.199738834628095e-10 1.1398408647141772e-05  0.
-3.627854248696849e-09 1.1397009465506224e-05  0.
-1.2273339080777119e-08 1.1392024266241623e-05  0.
-3.5684649480106026e-08 1.1376890195485808e-05  0.
-8.974226619626227e-08 1.1337624177439918e-05  0.
-1.9710227836922337e-07 1.1249894086320337e-05  0.
-3.8200318702405417e-07 1.1079513535891962e-05  0.
-6.601669821641495e-07 1.0789273136685739e-05  0.
-1.0286009032674811e-06 1.0351593969894975e-05  0.
-1.4615513663148346e-06 9.764466801130383e-06  0.
-1.9285458120291777e-06 9.072855071959023e-06  0.
-2.453749076158035e-06 8.43752512109654e-06  0.
-3.253351614835146e-06 8.329473657047857e-06  0.
-4.684170680290303e-06 9.553407432430292e-06  0.
-6.425530772886874e-06 1.1679700173470107e-05  0.
0.0 1.3621091633737752e-05  0.
-1.7766107578878572e-13 1.362109159553945e-05  0.
-1.4423104761291912e-12 1.362109123419019e-05  0.
-1.0238753096362637e-11 1.3621088518666844e-05  0.
-6.375033729095223e-11 1.3621070605188448e-05  0.
-3.4540396269713414e-10 1.3620967649838588e-05  0.
-1.6154860751043796e-09 1.3620456799778625e-05  0.
-6.475551121408756e-09 1.361828846988422e-05  0.
-2.213203851985535e-08 1.3610480147139802e-05  0.
-6.441469214614675e-08 1.3586760314427677e-05  0.
-1.6031425098193813e-07 1.3526038492313273e-05  0.
-3.444181983491219e-07 1.3394366010866822e-05  0.
-6.464973250763278e-07 1.3150077134756169e-05  0.
-1.073454595960665e-06 1.2758112351428278e-05  0.
-1.5988990455911626e-06 1.2208675629299202e-05  0.
-2.172879403259625e-06 1.1531784289353507e-05  0.
-2.7665096233273714e-06 1.0830722655942094e-05  0.
-3.48329474142999e-06 1.0399740175929093e-05  0.
-4.632532944081411e-06 1.09085021773799e-05  0.
-6.314267895113668e-06 1.2786846099101012e-05  0.
-7.916893629663691e-06 1.4576611259680949e-05  0.
0.0 1.6235068464419846e-05  0.
-2.6343329467224353e-13 1.623506841617684e-05  0.
-2.1747945481056595e-12 1.6235067952911726e-05  0.
-1.5716780676738813e-11 1.62350644099047e-05  0.
-9.966688483996141e-11 1.6235040610592437e-05  0.
-5.498876345087375e-10 1.6234901329969713e-05  0.
-2.6157237782256633e-09 1.6234198328959667e-05  0.
-1.0632061655360745e-08 1.6231171160783332e-05  0.
-3.6643838424044614e-08 1.622017217232183e-05  0.
-1.065983441470442e-07 1.6186778725043207e-05  0.
-2.6200694506083034e-07 1.6102578021426512e-05  0.
-5.487067647923528e-07 1.592609509554333e-05  0.
-9.933625669019173e-07 1.56155460254383e-05  0.
-1.5804313369786292e-06 1.51494224137148e-05  0.
-2.251939971463366e-06 1.454345195633422e-05  0.
-2.953164858356816e-06 1.3859130248233406e-05  0.
-3.708550429058104e-06 1.3258599550882217e-05  0.
-4.7479764990521566e-06 1.3176550720429245e-05  0.
-6.337366875333435e-06 1.4236492335062188e-05  0.
-8.11253635931232e-06 1.5941317352388663e-05  0.
-9.55178693982353e-06 1.6963146021057855e-05  0.
0.0 1.8535733467643427e-05  0.
-3.6649927765840247e-13 1.8535733411991126e-05  0.
-3.0680407485118374e-12 1.8535732870916485e-05  0.
-2.2502970045993965e-11 1.85357286725145e-05  0.
-1.4488645973979835e-10 1.853570004565251e-05  0.
-8.115236766145628e-10 1.853552998511818e-05  0.
-3.915027350916704e-09 1.8534659369544373e-05  0.
-1.60987450683469e-08 1.8530865383577274e-05  0.
-5.585949409924254e-08 1.851697955520221e-05  0.
-1.6225890993486877e-07 1.847487757563955e-05  0.
-3.9350458639513847e-07 1.8370361540617826e-05  0.
-8.018159470076981e-07 1.815905460215681e-05  0.
-1.3965696975027898e-06 1.7808282885143407e-05  0.
-2.1305855896760743e-06 1.7317670864408452e-05  0.
-2.927591814658219e-06 1.672162949763328e-05  0.
-3.7712397895858264e-06 1.6100946817023406e-05  0.
-4.801804831433334e-06 1.568150084804764e-05  0.
-6.279208107226001e-06 1.6008151167968273e-05  0.
-8.211696540738028e-06 1.732163759106383e-05  0.
-9.875853087949809e-06 1.8394317760640517e-05  0.
-1.1137223757201324e-05 1.914524287614095e-05  0.
0.0 2.0873491948435335e-05  0.
-4.793782893911682e-13 2.087349189036195e-05  0.
-4.05822145019376e-12 2.0873491320102077e-05  0.
-3.012312202086698e-11 2.087348684356907e-05  0.
-1.9634191433991844e-10 2.0873455951502043e-05  0.
-1.1132163158024533e-09 2.087327021279274e-05  0.
-5.432075716793702e-09 2.0872308419507337e-05  0.
-2.254752004867548e-08 2.0868076560033362e-05  0.
-7.86531525335032e-08 2.085249844689937e-05  0.
-2.280487155778674e-07 2.080534110367864e-05  0.
-5.45921343660174e-07 2.0689980908231256e-05  0.
-1.082600148252819e-06 2.046486369089073e-05  0.
-1.8142247893201047e-06 2.0113106146192237e-05  0.
-2.6654497884886958e-06 1.9654978170758915e-05  0.
-3.5841948835985525e-06 1.9125982966470485e-05  0.
-4.626813373167253e-06 1.8618398526157984e-05  0.
-6.022273248353678e-06 1.844627711751776e-05  0.
-7.841797524637044e-06 1.9088317725127276e-05  0.
-9.677489318626774e-06 2.021521150083666e-05  0.
-1.1030381844384589e-05 2.0765612608120673e-05  0.
-1.2298865110943684e-05 2.1774916471928023e-05  0.
0.0 2.3343565977143058e-05  0.
-5.899669709502293e-13 2.3343565923741236e-05  0.
-5.037621966539189e-12 2.334356539527243e-05  0.
-3.7737470456343004e-11 2.334356120914188e-05  0.
-2.4830121396156893e-10 2.3343532049770028e-05  0.
-1.4210826008205479e-09 2.3343355076299733e-05  0.
-6.9955968003929645e-09 2.334243045635262e-05  0.
-2.9248527365259646e-08 2.3338331262836995e-05  0.
-1.024426315508215e-07 2.332317224994573e-05  0.
-2.964942803084597e-07 2.327734476596e-05  0.
-7.01755886641617e-07 2.3166615581120415e-05  0.
-1.3580600589914613e-06 2.2957218764554358e-05  0.
-2.1969213499888846e-06 2.2648330133770623e-05  0.
-3.131676857671824e-06 2.2272550077506487e-05  0.
-4.190986453239058e-06 2.1852366708050444e-05  0.
-5.481517675227017e-06 2.1487533871230382e-05  0.
-7.139650645553388e-06 2.155565972851596e-05  0.
-8.975226732167671e-06 2.2277971734224964e-05  0.
-1.0382223042143868e-05 2.2930685643978536e-05  0.
-1.1664479660836678e-05 2.3222040104053395e-05  0.
-1.2970220306704218e-05 2.411655807416547e-05  0.
0.0 2.5654038988943498e-05  0.
-6.838431329011409e-13 2.5654038947733255e-05  0.
-5.874917750273305e-12 2.565403853771636e-05  0.
-4.4296318090112415e-11 2.565403526947016e-05  0.
-2.934075959512378e-10 2.5654012355670332e-05  0.
-1.6904347227646982e-09 2.565387237879529e-05  0.
-8.373618738455784e-09 2.5653136502670207e-05  0.
-3.519050374574806e-08 2.564985690078513e-05  0.
-1.236052616895881e-07 2.5637690757086654e-05  0.
-3.5722044983246425e-07 2.5600953291777503e-05  0.
-8.380646401809753e-07 2.5513023066678204e-05  0.
-1.5906296993301327e-06 2.535082577435892e-05  0.
-2.500701053683706e-06 2.5122856370452905e-05  0.
-3.4895931442795316e-06 2.486160627258482e-05  0.
-4.699253104743124e-06 2.4576847354289728e-05  0.
-6.215070195973481e-06 2.4357851729658726e-05  0.
-7.888142437257698e-06 2.4530392206404788e-05  0.
-9.499503050858712e-06 2.5089041201859293e-05  0.
-1.0774092332785158e-05 2.5357758279809922e-05  0.
-1.2216540134577474e-05 2.562327345267991e-05  0.
-1.3341177908874588e-05 2.604103682272882e-05  0.
0.0 2.80802372141399e-05  0.
-7.47025682967833e-13 2.8080237191668025e-05  0.
-6.44109142953731e-12 2.808023696734637e-05  0.
-4.8753518437183315e-11 2.8080235172394446e-05  0.
-3.2421872089321814e-10 2.808022253780988e-05  0.
-1.8753748793835384e-09 2.8080145046419136e-05  0.
-9.324418324853354e-09 2.8079736111966548e-05  0.
-3.9306982917761036e-08 2.8077907695771118e-05  0.
-1.3829817062934253e-07 2.807111159454665e-05  0.
-3.9930756930228003e-07 2.8050602914279544e-05  0.
-9.316162652196159e-07 2.800179998864922e-05  0.
-1.7462447282955954e-06 2.7913188360849347e-05  0.
-2.694759300803981e-06 2.779264422226337e-05  0.
-3.7140809152921964e-06 2.766037385865525e-05  0.
-5.041617943496992e-06 2.7518988804143477e-05  0.
-6.694317899548227e-06 2.7422527915808842e-05  0.
-8.246135957489458e-06 2.754827209320377e-05  0.
-9.705457231331196e-06 2.7823017690256457e-05  0.
-1.115996269638573e-05 2.791025856690317e-05  0.
-1.2474590334474995e-05 2.812748018679642e-05  0.
-1.3721452809129086e-05 2.830649918874074e-05  0.
0.0 3.0449999999999903e-05  0.
-7.693211727530226e-13 3.0449999999999903e-05  0.
-6.641353831398772e-12 3.0449999999999903e-05  0.
-5.0334068723524237e-11 3.0449999999999903e-05  0.
-3.3517300001874956e-10 3.0449999999999903e-05  0.
-1.9412982370505233e-09 3.0449999999999903e-05  0.
-9.664174244882429e-09 3.0449999999999903e-05  0.
-4.078096030126828e-08 3.0449999999999903e-05  0.
-1.4356495480160066e-07 3.0449999999999903e-05  0.
-4.143801347224281e-07 3.0449999999999903e-05  0.
-9.64950254020516e-07 3.0449999999999903e-05  0.
-1.800954472660031e-06 3.0449999999999903e-05  0.
-2.761275379361114e-06 3.0449999999999903e-05  0.
-3.790373941740051e-06 3.0449999999999903e-05  0.
-5.162306566444872e-06 3.0449999999999903e-05  0.
-6.856753953131221e-06 3.0449999999999903e-05  0.
-8.345548389601491e-06 3.0449999999999903e-05  0.
-9.783506848849242e-06 3.0449999999999903e-05  0.
-1.1322126897835521e-05 3.0449999999999903e-05  0.
-1.2459609885262488e-05 3.0449999999999903e-05  0.
-1.3949496099684278e-05 3.0449999999999903e-05  0.
</DataArray>
<DataArray type="Float64" Name="sigma_xx" NumberOfComponents="1" format="ascii" >
129.57280821623834 
129.57276214198282 
129.5725209793374 
129.57163149085454 
129.56872268432556 
129.56012269693667 
129.5369509990429 
129.47966060439236 
129.348892363712 
129.07186596189385 
128.52470160362722 
127.51306203151452 
125.75618116850147 
122.88163848683804 
118.4391447472954 
111.93954824184611 
102.91910857995742 
91.00326303634884 
75.6438583326968 
50.17965419296108 
33.35344663790705 
602.0458377054003 
602.0457071154171 
602.0449973109796 
602.0422302965843 
602.03267888137 
602.0030261455477 
601.9195506801187 
601.7049234585679 
601.1976354525215 
600.0891777380166 
597.838917076876 
593.5764140652109 
586.0142703040249 
573.4080905234194 
553.6064503736114 
524.2266896077206 
482.9632985481335 
427.9266639761746 
356.6924294762241 
244.54391577832794 
172.46738349685478 
3975.370406761324 
3975.369865377719 
3975.3667786690526 
3975.354025903542 
3975.3075696757887 
3975.156256336153 
3974.711938958818 
3973.5266520457544 
3970.6341532996776 
3964.136907114167 
3950.6301322850254 
3924.5196746445768 
3877.3867403057984 
3797.650259174111 
3670.833908311909 
3480.700653760159 
3211.320483373358 
2849.3213994645876 
2376.943259629893 
1629.9340446251913 
1149.6991411119589 
22430.47032139955 
22430.468331319225 
22430.456443706105 
22430.40457384215 
22430.205781187586 
22429.52822421595 
22427.457694224042 
22421.739861366852 
22407.365710866427 
22374.25091926037 
22303.92315321072 
22165.510862101604 
21911.898474538666 
21477.517866963495 
20779.596900169498 
19724.457915665233 
18219.237124125757 
16183.926911028651 
13503.60631078295 
9212.535798228113 
6442.717020960216 
108452.66266849004 
108452.65609911167 
108452.61510663004 
108452.42683707453 
108451.66982715312 
108448.97669950999 
108440.43332832727 
108416.07401131933 
108353.16455582995 
108204.96055376212 
107884.40850033329 
107244.1911204452 
106057.40033039209 
104006.2129492147 
100687.5907576948 
95643.79214230808 
88418.70530585934 
78608.71604598305 
65572.9166502583 
44434.87129704436 
30735.28411809966 
442564.6936698445 
442564.67404782376 
442564.54656126915 
442563.93264577293 
442561.35160724004 
442551.7978121295 
442520.44272571884 
442428.47462707106 
442185.4709223903 
441602.6458900017 
440324.95029642497 
437748.4057948659 
432941.7982004062 
424603.75475566176 
411092.1410260119 
390553.73124696186 
361149.82471732434 
321205.1547327065 
267680.8500570726 
179747.4217827443 
122532.54077391744 
1494687.365235325 
1494687.3118646005 
1494686.9520392918 
1494685.1426432477 
1494677.2177767293 
1494646.8015750083 
1494543.9098479531 
1494234.8014741088 
1493403.3621373128 
1491384.9364943272 
1486929.0561469705 
1477921.6029283497 
1461141.4912110816 
1432164.609531197 
1385528.2991018593 
1315221.2574891043 
1215410.3187053201 
1080574.1236627665 
898628.0479180649 
595850.676395798 
398157.85311252385 
4071700.830393208 
4071700.6975323195 
4071699.7712204703 
4071694.9271900766 
4071672.9079466257 
4071585.585431635 
4071282.255280244 
4070353.1193043836 
4067823.106479667 
4061648.158143334 
4048030.333790499 
4020689.6435373025 
3970361.3185469154 
3884852.686495695 
3749897.468155246 
3550778.4892675932 
3274081.5258984044 
2906132.2411390385 
2407160.084530501 
1567114.0489176884 
1017380.8198277785 
8645878.504472334 
8645878.200726926 
8645876.018227208 
8645864.197698396 
8645808.64298787 
8645581.795179993 
8644775.56273175 
8642268.720860194 
8635398.028567448 
8618660.417069025 
8582119.326286301 
8510053.297517262 
8380700.726911303 
8167835.156063789 
7844330.044698719 
7386623.652756255 
6777110.935920373 
5992544.757652613 
4925741.300513839 
3115853.023843189 
1932726.7605733266 
13726527.741832491 
13726527.102366699 
13726522.382776842 
13726496.013296869 
13726368.352823662 
13725833.446430946 
13723894.967169534 
13717801.652448885 
13701085.051645886 
13660738.450735513 
13574368.672497848 
13409085.854068957 
13124227.431092266 
12678963.292332832 
12043057.56635125 
11205961.620884411 
10173525.876604892 
8921299.932950474 
7213736.638591797 
4333655.874446955 
2472624.858984638 
15755077.892361298 
15755076.64787792 
15755067.242482483 
15755013.229278747 
15754744.80237504 
15753594.257575229 
15749355.2159572 
15735930.330222404 
15699241.540333193 
15612119.959516551 
15430980.850500599 
15098884.045942498 
14558505.771248734 
13774064.035199562 
12753217.454004966 
11554645.271433156 
10255963.897529414 
8824640.93577952 
6837066.53297903 
3658857.3657264067 
1702287.6499213665 
13724872.198573384 
13724869.947935183 
13724852.57841999 
13724750.385525621 
13724230.638498923 
13721957.809571065 
13713463.993496526 
13686429.016204612 
13613098.17281829 
13442808.363437045 
13102023.43963691 
12511015.92234794 
11619389.46657144 
10447636.296708953 
9110691.898094773 
7789723.053071303 
6622984.859610872 
5454800.01235765 
3664243.817316887 
1323022.2929847662 
139196.2727856664 
12216728.733072186 
12216724.934388602 
12216695.073861375 
12216515.622844793 
12215584.189849019 
12211438.603133615 
12195754.429033158 
12145669.709169457 
12011184.341163484 
11707317.830267556 
11127165.237455871 
10188002.088936407 
8900505.804808222 
7416340.231372767 
6006257.273580065 
4932548.047262091 
4203587.072446908 
3295457.83168827 
1544742.6009314149 
24370.968264003983 
-350909.044676092 
13574433.348560572 
13574427.351678153 
13574379.4554342 
13574086.285541216 
13572537.534817724 
13565538.153060412 
13538777.891641542 
13453162.55131463 
13225996.904684363 
12728677.040840387 
11830895.660919938 
10494613.989786915 
8869313.841070157 
7293659.36832147 
6136307.60890155 
5533449.269627124 
5053136.813901108 
3764229.3348153783 
1522274.686722194 
57395.81976676732 
-143195.81524121715 
13794946.941828296 
13794938.069866402 
13794866.243959775 
13794419.686528083 
13792024.92399749 
13781060.024703914 
13738767.500458248 
13603340.859325033 
13248584.691543356 
12498156.67642099 
11227881.663385795 
9519139.397592483 
7726626.98200841 
6340400.87532628 
5617488.327692819 
5253689.192432332 
4337697.385809208 
2123556.6279852744 
-160048.7187900003 
-784821.1740911906 
-594964.4697793047 
13017704.791991107 
13017692.467115331 
13017591.55201436 
13016955.92062584 
13013504.159246828 
12997526.098908752 
12935444.698332954 
12736597.11352649 
12222262.176802967 
11171768.743694335 
9515025.922773067 
7539128.633605593 
5809740.519490879 
4785459.879090997 
4344207.25185273 
3615865.884984196 
1764858.8886771908 
-846331.9405325509 
-1879938.5043678693 
-802395.3187921231 
-38563.15718360478 
13494311.915367346 
13494295.81666638 
13494162.790520998 
13493316.041422438 
13488670.872780776 
13466977.45533233 
13382191.060291149 
13110641.760463793 
12416404.987001108 
11045310.366883002 
9036706.596543724 
6955546.505166229 
5496814.776434633 
4778649.056970529 
4187718.681501248 
2699481.0926840333 
305513.6200642574 
-1236567.6594888605 
-754962.7707163885 
248900.6650519243 
512349.05809324514 
13417556.388425395 
13417536.594289336 
13417371.87562948 
13416314.869065078 
13410470.679668631 
13382990.708034884 
13275100.704484899 
12929643.233304046 
12055170.781128278 
10378602.128761452 
8091145.073000232 
6066168.607660245 
4986043.831680001 
4319303.238442126 
3150979.5445805923 
1200723.6409014242 
-710383.8850602673 
-590277.9720904804 
197158.70433467464 
-31290.89806072251 
-184242.7067036596 
13294101.700359236 
13294078.771081993 
13293887.00695979 
13292649.361341748 
13285768.289818998 
13253255.407449588 
13125194.99329256 
12715262.39341954 
11685367.82995117 
9756304.408727251 
7279094.7779144095 
5407765.285830126 
4689086.298394748 
3806019.0003469884 
1910017.4948791822 
256531.84121187148 
-490740.27308154944 
6236.918820490828 
184271.96825452126 
-30870.734252202557 
296466.83482788876 
13460889.423937779 
13460864.386079753 
13460654.36130004 
13459294.205839735 
13451706.859469106 
13415752.69761382 
13273866.242939848 
12819763.825653665 
11684251.982502453 
9588837.5957288 
7006791.559562077 
5287761.107800378 
4818202.367784607 