<?xml version="1.0"?>
<VTKFile type="UnstructuredGrid" version="0.1" byte_order="LittleEndian" compressor="vtkZLibDataCompressor">
<UnstructuredGrid>
<Piece NumberOfPoints="441" NumberOfCells="400">
<PointData>
<DataArray type="Float64" Name="displacement" NumberOfComponents="3" format="ascii" >
0.0 2.3314519129958326e-12  0.
-3.74455332288783e-19 2.331451606928055e-12  0.
-1.6875348183792347e-18 2.3314499907134227e-12  0.
-6.6585891199064e-18 2.331443313578432e-12  0.
-2.3428453699630997e-17 2.331418852589363e-12  0.
-7.373271692386278e-17 2.33133903564146e-12  0.
-2.099494402514964e-16 2.3311038616822373e-12  0.
-5.447818951172615e-16 2.3304735701820973e-12  0.
-1.2971290856725296e-15 2.3289256479422184e-12  0.
-2.8507104448393296e-15 2.325421339787149e-12  0.
-5.81122770083603e-15 2.3180703565984996e-12  0.
-1.103535506953758e-14 2.3037187130964815e-12  0.
-1.9592132718654862e-14 2.2775419934157683e-12  0.
-3.262200678944193e-14 2.232791987893857e-12  0.
-5.1076564420160604e-14 2.16089015384823e-12  0.
-7.537025247450548e-14 2.0520510017173062e-12  0.
-1.0502296796897717e-13 1.896525772526977e-12  0.
-1.3845797838484386e-13 1.6863970615466056e-12  0.
-1.7364414968962835e-13 1.4182721420331747e-12  0.
-2.2125497293623267e-13 1.108645179141198e-12  0.
-5.258448366312493e-13 1.1187026283666693e-12  0.
0.0 1.0705036932641144e-11  0.
-9.67194567513396e-19 1.0705036305107136e-11  0.
-4.8232857434031245e-18 1.0705032303727787e-11  0.
-2.0538444250258907e-17 1.0705014209651503e-11  0.
-7.71634827401152e-17 1.0704942811321616e-11  0.
-2.5771598926194667e-16 1.0704693153781051e-11  0.
-7.729457445708091e-16 1.0703911937979858e-11  0.
-2.0994618592619343e-15 1.0701704507681098e-11  0.
-5.203451690047363e-15 1.0696027289328074e-11  0.
-1.18434305744408e-14 1.0682646741353381e-11  0.
-2.489377753141801e-14 1.0653575611174293e-11  0.
-4.854866157692213e-14 1.0595059101841971e-11  0.
-8.82085277023479e-14 1.0485462863133932e-11  0.
-1.498276786303054e-13 1.0293767811384145e-11  0.
-2.3862477851341096e-13 9.979649909627098e-12  0.
-3.572510140160743e-13 9.496139306897158e-12  0.
-5.038522571515475e-13 8.795435688644943e-12  0.
-6.708321006215923e-13 7.83776302325299e-12  0.
-8.48718893043348e-13 6.60568103520878e-12  0.
-1.1045516222541214e-12 5.201009955506601e-12  0.
-2.9411999121902814e-12 5.404469469609221e-12  0.
0.0 8.538772199799783e-11  0.
-4.2076675315394656e-18 8.538771939613068e-11  0.
-2.2760049118996822e-17 8.538770217580514e-11  0.
-1.0491914549099629e-16 8.538761775136005e-11  0.
-4.228608726434329e-16 8.538725836871288e-11  0.
-1.5052290147103632e-15 8.53859124739693e-11  0.
-4.776198975786304e-15 8.538143609715675e-11  0.
-1.3633249113577837e-14 8.536808821421198e-11  0.
-3.5288095371508114e-14 8.533210209174041e-11  0.
-8.342235673494461e-14 8.524371748886829e-11  0.
-1.8122119823648435e-13 8.504466921627531e-11  0.
-3.636818800725893e-13 8.463130928474343e-11  0.
-6.772998368094247e-13 8.383592276764067e-11  0.
-1.1751294869414566e-12 8.241192870547238e-11  0.
-1.9057864877526472e-12 8.00315014821153e-11  0.
-2.8972217998438825e-12 7.630473898842871e-11  0.
-4.138596569629073e-12 7.082645937155584e-11  0.
-5.568134047388074e-12 6.325093372151985e-11  0.
-7.105883637675714e-12 5.3419185704168706e-11  0.
-9.326056248560282e-12 4.218159011488543e-11  0.
-2.4661239351081818e-11 4.419124818042529e-11  0.
0.0 6.056993137417197e-10  0.
-1.6130678240667994e-17 6.056993044274469e-10  0.
-9.389821577460658e-17 6.056992386016083e-10  0.
-4.660411992376056e-16 6.056988907547502e-10  0.
-2.0156964798451054e-15 6.056972961696979e-10  0.
-7.652654544822181e-15 6.056909017471007e-10  0.
-2.5730516748004256e-14 6.056682761704654e-10  0.
-7.730178599361347e-14 6.055970005990183e-10  0.
-2.0929801731255878e-13 6.053953067247472e-10  0.
-5.145901690488364e-13 6.048785099010858e-10  0.
-1.1566923979817954e-12 6.036709110107475e-10  0.
-2.39084232742556e-12 6.010816225932873e-10  0.
-4.567316795271354e-12 5.95959799839854e-10  0.
-8.098825016962263e-12 5.865700250745788e-10  0.
-1.3379981277991057e-11 5.705524738311108e-10  0.
-2.0660242759249307e-11 5.450419949173739e-10  0.
-2.989827752235421e-11 5.069998098983776e-10  0.
-4.065883612580856e-11 4.5377247916892617e-10  0.
-5.2388936119664806e-11 3.8410924828590827e-10  0.
-6.969424629184036e-11 3.0472667050192363e-10  0.
-1.8070175090031992e-10 3.2173461581454746e-10  0.
0.0 3.744968018292509e-09  0.
-5.5063328205695916e-17 3.744967988675131e-09  0.
-3.425618959443108e-16 3.7449677668992175e-09  0.
-1.821842742109798e-15 3.744966510264465e-09  0.
-8.43036096095124e-15 3.744960334310426e-09  0.
-3.409979609472846e-14 3.744933866606569e-09  0.
-1.2144742759132263e-13 3.744834326884708e-09  0.
-3.84134887050212e-13 3.744503048194936e-09  0.
-1.0882891820147221e-12 3.743518905005517e-09  0.
-2.7839980194127883e-12 3.740887267920261e-09  0.
-6.476930830409906e-12 3.734505134441522e-09  0.
-1.3791494658735556e-11 3.720373338218737e-09  0.
-2.702633839436258e-11 3.691635087725625e-09  0.
-4.8976213076885856e-11 3.6376877008729975e-09  0.
-8.24130448428626e-11 3.5437935520724523e-09  0.
-1.2923088621641313e-10 3.3916994573885245e-09  0.
-1.8941928766824547e-10 3.161670202682232e-09  0.
-2.603346685412927e-10 2.8361159173232836e-09  0.
-3.3878592971755095e-10 2.4067446292871606e-09  0.
-4.574008661312319e-10 1.9206352477279026e-09  0.
-1.1578061754843876e-09 2.0470739248765942e-09  0.
0.0 1.9954273723730056e-08  0.
-1.6898449921428955e-16 1.9954273639452703e-08  0.
-1.1153841776458208e-15 1.9954272974447655e-08  0.
-6.317866076038291e-15 1.995426896200227e-08  0.
-3.113311205498206e-14 1.9954247937995445e-08  0.
-1.3374263379505413e-13 1.9954152054786194e-08  0.
-5.035331428406212e-13 1.9953769844775826e-08  0.
-1.674304338560885e-12 1.9952428794072612e-08  0.
-4.958098533596195e-12 1.9948252726388994e-08  0.
-1.318384944981528e-11 1.9936614051357617e-08  0.
-3.171784374297515e-11 1.990735376937931e-08  0.
-6.95108041662859e-11 1.9840521541682266e-08  0.
-1.396020341110715e-10 1.9700956805158045e-08  0.
-2.582869712186673e-10 1.9433002437821818e-08  0.
-4.4225255005336306e-10 1.8957719981418668e-08  0.
-7.035860028905589e-10 1.8175587483445905e-08  0.
-1.0436365815233856e-09 1.6977181369625073e-08  0.
-1.4486776855976933e-09 1.526340115258481e-08  0.
-1.9041234426323173e-09 1.2989290679433967e-08  0.
-2.61248624037409e-09 1.0445718502923763e-08  0.
-6.420470141064635e-09 1.1263973756086562e-08  0.
0.0 9.042343257736317e-08  0.
-4.696721128414252e-16 9.042343236090922e-08  0.
-3.268943763365309e-15 9.042343057123075e-08  0.
-1.959634728159684e-14 9.042341914907313e-08  0.
-1.0227076885594312e-13 9.042335574294974e-08  0.
-4.64584179994915e-13 9.042304958113182e-08  0.
-1.8427463345564224e-12 9.042176146490959e-08  0.
-6.422361008381097e-12 9.041701426080694e-08  0.
-1.982624944878883e-11 9.040157095342844e-08  0.
-5.465936317104479e-11 9.035685686664735e-08  0.
-1.3565170702177726e-10 9.024068427181282e-08  0.
-3.0523539327141605e-10 8.996780311860924e-08  0.
-6.267776525780497e-10 8.938435093294189e-08  0.
-1.1812181084106e-09 8.824197261321648e-08  0.
-2.0534392169690904e-09 8.618274243175796e-08  0.
-3.3073772877604535e-09 8.274934682818912e-08  0.
-4.955185077893482e-09 7.74330277637471e-08  0.
-6.936587780203869e-09 6.97695105969712e-08  0.
-9.205372939608937e-09 5.957121037170221e-08  0.
-1.285101796793285e-08 4.8408567904492596e-08  0.
-3.044661792233993e-08 5.296858288680371e-08  0.
0.0 3.4303399726554135e-07  0.
-1.1908354094565796e-15 3.4303399676039054e-07  0.
-8.688108438223875e-15 3.4303399240628263e-07  0.
-5.47835891331611e-14 3.430339631996946e-07  0.
-3.0107757141200603e-13 3.4303379248571295e-07  0.
-1.439186871585399e-12 3.43032924619644e-07  0.
-5.989222272931812e-12 3.430290890149678e-07  0.
-2.1796041282558775e-11 3.430143061895205e-07  0.
-6.986773339874424e-11 3.429643018500989e-07  0.
-1.9892076309931152e-10 3.4281461822794324e-07  0.
-5.071435144546314e-10 3.424147900897284e-07  0.
-1.1668082757874525e-09 3.414540248110577e-07  0.
-2.439391221752854e-09 3.3936205279351256e-07  0.
-4.663452972538086e-09 3.352071911064975e-07  0.
-8.19736121905138e-09 3.2763609331854517e-07  0.
-1.3315563568186936e-08 3.149113606022657e-07  0.
-2.0079193833627992e-08 2.9509663606366264e-07  0.
-2.8266762298571393e-08 2.664408884710233e-07  0.
-3.78357747619388e-08 2.284357487524532e-07  0.
-5.380089218910102e-08 1.884103176392153e-07  0.
-1.2175516897489744e-07 2.1001065938894696e-07  0.
0.0 1.0689503156341707e-06  0.
-2.769386545927396e-15 1.068950314558241e-06  0.
-2.1064108668727467e-14 1.0689503049360974e-06  0.
-1.3890908097485737e-13 1.0689502374949276e-06  0.
-7.99446724518782e-13 1.0689498248557586e-06  0.
-4.000847666485744e-12 1.0689476283129268e-06  0.
-1.7391006001267376e-11 1.0689374810996767e-06  0.
-6.581515532381146e-11 1.0688967685413305e-06  0.
-2.1811743329583802e-10 1.0687542538833122e-06  0.
-6.381358819098349e-10 1.0683157331482422e-06  0.
-1.662292386565764e-09 1.0671192582829587e-06  0.
-3.887329780790075e-09 1.064199809778299e-06  0.
-8.223629268217132e-09 1.0577774485547007e-06  0.
-1.584595525700312e-08 1.0449473553139122e-06  0.
-2.798579409148007e-08 1.0215163890352323e-06  0.
-4.556004650430835e-08 9.82164122401471e-07  0.
-6.874845240563382e-08 9.210647881106082e-07  0.
-9.686592642519137e-08 8.331917705937642e-07  0.
-1.3052683772320918e-07 7.184309001243732e-07  0.
-1.8913850377867366e-07 6.059097461515334e-07  0.
-4.040041861883601e-07 6.914843593312718e-07  0.
0.0 2.6767681829150755e-06  0.
-5.927978092219905e-15 2.6767681808211215e-06  0.
-4.6771954845787835e-14 2.6767681614758643e-06  0.
-3.208607166808688e-13 2.676768020549464e-06  0.
-1.923537294945459e-12 2.6767671228172927e-06  0.
-1.0027921598180691e-11 2.676762145219096e-06  0.
-4.532538302291434e-11 2.6767382255108377e-06  0.
-1.7763809952951007e-10 2.6766387623001924e-06  0.
-6.06016261556986e-10 2.6762801160596946e-06  0.
-1.8126242450321522e-09 2.675151932675716e-06  0.
-4.795169380740836e-09 2.6720296620925153e-06  0.
-1.1318237847972074e-08 2.6643587695003632e-06  0.
-2.403838000621389e-08 2.6474802561994818e-06  0.
-4.629274226918174e-08 2.613946113826208e-06  0.
-8.141620610122083e-08 2.553330145261914e-06  0.
-1.3164100282462428e-07 2.452944690715101e-06  0.
-1.9704223320798698e-07 2.2997115440561605e-06  0.
-2.7586357538204117e-07 2.083966032912253e-06  0.
-3.7306917731556225e-07 1.813099055052035e-06  0.
-5.503790690185129e-07 1.5836474907914029e-06  0.
-1.0925621276355581e-06 1.861233100832983e-06  0.
0.0 5.279786893843227e-06  0.
-1.1705804534642503e-14 5.279786890122898e-06  0.
-9.536898133362093e-14 5.279786854755722e-06  0.
-6.77229630573776e-13 5.2797865882528375e-06  0.
-4.207960752425837e-12 5.2797848294944984e-06  0.
-2.2741933764884023e-11 5.279774721766688e-06  0.
-1.0640879554832255e-10 5.279724428569114e-06  0.
-4.301295513794859e-10 5.279508605946383e-06  0.
-1.5043955439203699e-09 5.27871031133644e-06  0.
-4.5781305983867786e-09 5.276155978556201e-06  0.
-1.2225325367129278e-08 5.269032781248945e-06  0.
-2.8914735564676598e-08 5.251560207246971e-06  0.
-6.112203201250625e-08 5.213516721015473e-06  0.
-1.1650042500669933e-07 5.139315985080956e-06  0.
-2.0183098108626802e-07 5.0085972565086805e-06  0.
-3.204137985240233e-07 4.798920949875169e-06  0.
-4.702131335649421e-07 4.490801379222842e-06  0.
-6.477127481091795e-07 4.077630822298946e-06  0.
-8.753128874280573e-07 3.604186489526421e-06  0.
-1.3089057572777121e-06 3.32964317165622e-06  0.
-2.3688041518780026e-06 4.04606102068963e-06  0.
0.0 8.194112977344226e-06  0.
-2.1390868208041483e-14 8.194112971297993e-06  0.
-1.7920105819090887e-13 8.194112912368028e-06  0.
-1.3112887790772828e-12 8.19411245505739e-06  0.
-8.405574111112282e-12 8.194109342778518e-06  0.
-4.6879382629759034e-11 8.194090887810443e-06  0.
-2.260942517819344e-10 8.193996220513776e-06  0.
-9.389656938146139e-10 8.19357863326054e-06  0.
-3.354383558557443e-09 8.192000081903968e-06  0.
-1.0341852234040334e-08 8.186883601151812e-06  0.
-2.7722768718576515e-08 8.172589270884686e-06  0.
-6.524277080828407e-08 8.137863700449551e-06  0.
-1.3612730319507886e-07 8.063795883655704e-06  0.
-2.5425371868000565e-07 7.923811874820363e-06  0.
-4.29123414223642e-07 7.687238109281449e-06  0.
-6.605979928940608e-07 7.327008426329681e-06  0.
-9.3854262740291e-07 6.830919784310681e-06  0.
-1.2584662896569972e-06 6.226004825733701e-06  0.
-1.6914935921215178e-06 5.6695318213849365e-06  0.
-2.533202745947335e-06 5.7012901681313315e-06  0.
-4.097912657243098e-06 7.1177646831587e-06  0.
0.0 1.0535649748720447e-05  0.
-3.636341811425241e-14 1.0535649739669778e-05  0.
-3.120639390095468e-13 1.053564964953689e-05  0.
-2.3434569132560552e-12 1.0535648932149297e-05  0.
-1.5432298843994545e-11 1.05356439187161e-05  0.
-8.844771816678434e-11 1.0535613376059903e-05  0.
-4.3795972875018365e-10 1.0535452511604293e-05  0.
-1.862040326846408e-09 1.0534725764352268e-05  0.
-6.772570928733605e-09 1.0531927071715602e-05  0.
-2.1081601419534914e-08 1.0522767855290012e-05  0.
-5.646894336349394e-08 1.0497245853617053e-05  0.
-1.3140730574355824e-07 1.0436260727158706e-05  0.
-2.6856489277584584e-07 1.0310044477900365e-05  0.
-4.872081539416551e-07 1.0081571024375568e-05  0.
-7.933006159143269e-07 9.716415715030032e-06  0.
-1.1723042824339744e-06 9.197678228581122e-06  0.
-1.5976563635438292e-06 8.54644853883909e-06  0.
-2.0750437745384514e-06 7.875149035393201e-06  0.
-2.7686800049672567e-06 7.558355496766031e-06  0.
-4.058687958552015e-06 8.39935799282925e-06  0.
-5.815555667555756e-06 1.0441476089908745e-05  0.
0.0 1.2616464092214317e-05  0.
-5.777791265484533e-14 1.2616464079698804e-05  0.
-5.062091704248058e-13 1.2616463952743734e-05  0.
-3.886919424943894e-12 1.261646292019269e-05  0.
-2.6196200443367055e-11 1.2616455538834111e-05  0.
-1.5370783123682954e-10 1.2616409516793568e-05  0.
-7.786325588688007e-10 1.2616161556758276e-05  0.
-3.3784093084249635e-09 1.261501800079931e-05  0.
-1.2477376188765655e-08 1.2610543726292912e-05  0.
-3.911537399857714e-08 1.2595792836080398e-05  0.
-1.0435010530159997e-07 1.2554918148885441e-05  0.
-2.38921367345962e-07 1.2459355311641028e-05  0.
-4.7525088705321925e-07 1.2269011686144284e-05  0.
-8.316200397658102e-07 1.1942335343509417e-05  0.
-1.2971905301958734e-06 1.1454447825083232e-05  0.
-1.8325448203581804e-06 1.081553908874254e-05  0.
-2.3973278085009768e-06 1.0101865966647921e-05  0.
-3.04992821247796e-06 9.552970691622469e-06  0.
-4.062292505731034e-06 9.786790279810031e-06  0.
-5.671272509760767e-06 1.1479937398991208e-05  0.
-7.3200830519412205e-06 1.3488705153998371e-05  0.
0.0 1.5159863040910376e-05  0.
-8.595174585771194e-14 1.515986302504265e-05  0.
-7.663661557175098e-13 1.5159862861532687e-05  0.
-5.99642810005101e-12 1.5159861506966467e-05  0.
-4.121467503782322e-11 1.51598516349408e-05  0.
-2.467045236837369e-10 1.51597888563506e-05  0.
-1.2742241556117323e-09 1.5159443981332122e-05  0.
-5.625666006320266e-09 1.5157825071936508e-05  0.
-2.1048580256937767e-08 1.5151404244275594e-05  0.
-6.633487980661172e-08 1.5130113432815057e-05  0.
-1.7589841449330264e-07 1.5071535695065945e-05  0.
-3.949335561286009e-07 1.493798731928944e-05  0.
-7.609469833061353e-07 1.4683731310748444e-05  0.
-1.278875573069611e-06 1.4273443351380534e-05  0.
-1.9072219273172718e-06 1.3704263428771257e-05  0.
-2.585096590513329e-06 1.3022635343497434e-05  0.
-3.3007184835773866e-06 1.2363432043616278e-05  0.
-4.218888319085008e-06 1.2108983048272327e-05  0.
-5.653008879447115e-06 1.2943566667192423e-05  0.
-7.4069434068880246e-06 1.476890781575537e-05  0.
-8.901344973698596e-06 1.603766821502377e-05  0.
0.0 1.760039199874451e-05  0.
-1.1987446386836398e-13 1.7600391980411858e-05  0.
-1.0844647856355148e-12 1.7600391789019522e-05  0.
-8.618772936812081e-12 1.7600390179083637e-05  0.
-6.021002523478273e-11 1.7600378256615613e-05  0.
-3.664258503725978e-10 1.760030118472418e-05  0.
-1.9233978562518207e-09 1.7599870884089065e-05  0.
-8.615703746300263e-09 1.7597820864097294e-05  0.
-3.25843024856609e-08 1.7589597239635975e-05  0.
-1.0308641151595085e-07 1.7562205613251667e-05  0.
-2.71430546869948e-07 1.7487416859914328e-05  0.
-5.965959890644434e-07 1.7321362950156772e-05  0.
-1.1101277830408927e-06 1.7020585553634185e-05  0.
-1.7891238077347623e-06 1.6567240202457384e-05  0.
-2.5625416368305415e-06 1.5982719587956195e-05  0.
-3.377181311334933e-06 1.5340029605390244e-05  0.
-4.321137037396734e-06 1.4835154145873562e-05  0.
-5.640980227420233e-06 1.4972017476102235e-05  0.
-7.488382002850737e-06 1.6186200909068954e-05  0.
-9.2173622303594e-06 1.7449880765397598e-05  0.
-1.0527022161505901e-05 1.814116762222935e-05  0.
0.0 1.9848210185528738e-05  0.
-1.5708915453578532e-13 1.9848210166364235e-05  0.
-1.4378419132777652e-12 1.9848209964195712e-05  0.
-1.1571519413912987e-11 1.9848208242832216e-05  0.
-8.190290369092776e-11 1.9848195331627192e-05  0.
-5.051404732827725e-10 1.9848110769226088e-05  0.
-2.6863305064659955e-09 1.9847632505615847e-05  0.
-1.2175164702565098e-08 1.984532681852779e-05  0.
-4.644691329970571e-08 1.983599309025816e-05  0.
-1.4735353430810626e-07 1.980479874831645e-05  0.
-3.8524577995137764e-07 1.9720251530761674e-05  0.
-8.290884661343986e-07 1.953727175900834e-05  0.
-1.4890865794436888e-06 1.9222356627598095e-05  0.
-2.304429371884456e-06 1.8780830935664815e-05  0.
-3.203896016441572e-06 1.8248524833754912e-05  0.
-4.189516939097468e-06 1.770682083114502e-05  0.
-5.453576926726152e-06 1.742695191277279e-05  0.
-7.183405969387429e-06 1.790821977177862e-05  0.
-9.06584182850352e-06 1.9086098361693092e-05  0.
-1.05543145568821e-05 1.9748646836842557e-05  0.
-1.1746160668985607e-05 2.0567623466810363e-05  0.
0.0 2.2341648897191363e-05  0.
-1.936203148862379e-13 2.234164887953756e-05  0.
-1.788188099037916e-12 2.2341648691788973e-05  0.
-1.4530323622497248e-11 2.234164707801689e-05  0.
-1.0388444661717639e-10 2.2341634853171828e-05  0.
-6.47320613401128e-10 2.234155396677476e-05  0.
-3.4772086889333857e-09 2.2341091860668735e-05  0.
-1.5903095632568418e-08 2.2338843314378987e-05  0.
-6.107634218116754e-08 2.2329675412378748e-05  0.
-1.94156033862452e-07 2.2298953193833664e-05  0.
-5.044469557807853e-07 2.221619197737357e-05  0.
-1.0653991585125105e-06 2.2041004275290982e-05  0.
-1.8520986420620722e-06 2.1753544396920698e-05  0.
-2.765473394819265e-06 2.1378426862882814e-05  0.
-3.784261501687445e-06 2.095249287549545e-05  0.
-4.994825668848181e-06 2.055163882584716e-05  0.
-6.546137230853285e-06 2.0500453151735056e-05  0.
-8.41077404651346e-06 2.1141942295065716e-05  0.
-9.927293680207065e-06 2.1896200791094114e-05  0.
-1.1198577104712016e-05 2.2215912525411476e-05  0.
-1.2507154028862841e-05 2.3158627382589887e-05  0.
0.0 2.4664604882921576e-05  0.
-2.246548374300263e-13 2.4664604869293802e-05  0.
-2.0880167057636805e-12 2.4664604723539964e-05  0.
-1.7082562128577203e-11 2.4664603462435333e-05  0.
-1.2300295327399562e-10 2.466459384271331e-05  0.
-7.720353700485939e-10 2.466452973810391e-05  0.
-4.176763930752892e-09 2.466416090840266e-05  0.
-1.922575032544581e-08 2.466235448432964e-05  0.
-7.418881277992622e-08 2.4654951876619784e-05  0.
-2.3615834731449976e-07 2.46300985943197e-05  0.
-6.106069518369355e-07 2.4563451757676693e-05  0.
-1.2706685019712348e-06 2.4424757789231435e-05  0.
-2.151295879171078e-06 2.4205851447277575e-05  0.
-3.123752694162054e-06 2.393788357854204e-05  0.
-4.254332722825778e-06 2.3650560504540048e-05  0.
-5.698143152957728e-06 2.3401789829780587e-05  0.
-7.3559691902398905e-06 2.3474979222258695e-05  0.
-9.014267251381633e-06 2.4022811139135024e-05  0.
-1.0364318818275805e-05 2.4369382153953867e-05  0.
-1.1659373770321373e-05 2.45843317695036e-05  0.
-1.2947300042377413e-05 2.5125944143098708e-05  0.
0.0 2.7072633811900446e-05  0.
-2.455586725456949e-13 2.7072633804460325e-05  0.
-2.290954306433657e-12 2.7072633724613606e-05  0.
-1.8819067834317934e-11 2.707263303101223e-05  0.
-1.360822279614931e-10 2.7072627718174343e-05  0.
-8.578353467866562e-10 2.7072592162606664e-05  0.
-4.660718619182913e-09 2.707238672428576e-05  0.
-2.1536076319513096e-08 2.7071376611564565e-05  0.
-8.334083201877072e-08 2.7067224691542438e-05  0.
-2.655011726084455e-07 2.705326979586841e-05  0.
-6.843910019822913e-07 2.7015953693805925e-05  0.
-1.4108686803030966e-06 2.69391253697347e-05  0.
-2.347894866770756e-06 2.6820948706752667e-05  0.
-3.3492371896337824e-06 2.6682775939208597e-05  0.
-4.5623635612444656e-06 2.6541447323756472e-05  0.
-6.169945453877363e-06 2.6429957398962715e-05  0.
-7.793940830232475e-06 2.6499655680649042e-05  0.
-9.224850896064663e-06 2.677244085627934e-05  0.
-1.0697701639484148e-05 2.6933059932659666e-05  0.
-1.200268821900007e-05 2.7105678202446563e-05  0.
-1.325404105444438e-05 2.7230290169599196e-05  0.
0.0 2.9449999999999913e-05  0.
-2.5294053160187143e-13 2.9449999999999913e-05  0.
-2.3627922416254005e-12 2.9449999999999913e-05  0.
-1.94353724895443e-11 2.9449999999999913e-05  0.
-1.4073682917544542e-10 2.9449999999999913e-05  0.
-8.884546893862569e-10 2.9449999999999913e-05  0.
-4.833902205205641e-09 2.9449999999999913e-05  0.
-2.2364899095477378e-08 2.9449999999999913e-05  0.
-8.66301685392094e-08 2.9449999999999913e-05  0.
-2.76051418833576e-07 2.9449999999999913e-05  0.
-7.108491366247767e-07 2.9449999999999913e-05  0.
-1.4606878887623228e-06 2.9449999999999913e-05  0.
-2.416317653861294e-06 2.9449999999999913e-05  0.
-3.42592438186582e-06 2.9449999999999913e-05  0.
-4.669388705313702e-06 2.9449999999999913e-05  0.
-6.332318028992046e-06 2.9449999999999913e-05  0.
-7.926291586197192e-06 2.9449999999999913e-05  0.
-9.29463295670044e-06 2.9449999999999913e-05  0.
-1.0825970306109991e-05 2.9449999999999913e-05  0.
-1.2077947761344657e-05 2.9449999999999913e-05  0.
-1.3423118731471856e-05 2.9449999999999913e-05  0.
</DataArray>
<DataArray type="Float64" Name="sigma_xx" NumberOfComponents="1" format="ascii" >
46.892068406023654 
46.89205500563175 
46.891981475560826 
46.89170293170618 
46.89077151009967 
46.88796269025629 
46.88026892241125 
46.860974756146575 
46.81639372838829 
46.720949120615515 
46.53069333171443 
46.176101176076386 
45.55597088451434 
44.53514427238402 
42.94917120839513 
40.61833255297741 
37.37124469882501 
33.069602389801375 
27.523024925812923 
18.364894993627694 
12.324330000978986 
232.5575516382016 
232.5575119921374 
232.5572883432602 
232.55638755270695 
232.55319045456514 
232.54302810027374 
232.5138454217778 
232.43753408674897 
232.2545419042309 
231.84969624168156 
231.01896344246416 
229.4306922223654 
226.59018756310263 
221.8220563066086 
214.28755360708425 
203.05178211332813 
187.20446428033273 
165.9986188645712 
138.52691686244697 
95.33327544608557 
67.58971045628388 
1665.9846700850517 
1665.9844996436132 
1665.9834914167777 
1665.9791596651535 
1665.9628362392093 
1665.9081158998383 
1665.7434660616304 
1665.2950098838821 
1664.180981275631 
1661.6399733271332 
1656.2872163172756 
1645.8201950370062 
1626.7369893324662 
1594.1744256897643 
1542.001182835983 
1463.2849739126814 
1351.1728688880835 
1199.9034742055098 
1002.2471218423808 
689.8489865098109 
489.0606490448588 
10246.8529059152 
10246.85226290178 
10246.848258538274 
10246.829969084987 
10246.756984094714 
10246.499423977037 
10245.688536758553 
10243.391237485519 
10237.487308795142 
10223.624164532039 
10193.690388876628 
10133.92176483496 
10023.023002531103 
9830.99290879363 
9519.532014995442 
9044.841509317499 
8363.079853471176 
7436.436167299052 
6214.0277351102595 
4258.029662412841 
2995.7170690209073 
54176.77074603942 
54176.76857918939 
54176.754413087765 
54176.68588447165 
54176.39710563747 
54175.32662499445 
54171.80711134727 
54161.455528778366 
54133.98969248415 
54067.73985852096 
53921.45429032878 
53623.933611962595 
53063.539042780256 
52081.33440111061 
50472.724485520186 
48002.05035573045 
44431.44342566318 
39550.46644772419 
33049.965901094096 
22513.37031920763 
15685.341541454834 
242714.3384640228 
242714.33188352553 
242714.2868870468 
242714.05737646407 
242713.03983276474 
242709.09002112583 
242695.5706726296 
242654.4212591807 
242542.08795507206 
242264.77969572216 
241641.09285659253 
240354.42521788122 
237904.94010259557 
233578.5062071437 
226455.0138388887 
215475.1779489066 
199568.77054912163 
177764.07416603685 
148461.20155015404 
100328.51739857902 
69008.41539537736 
904815.7977490588 
904815.7796046783 
904815.650350643 
904814.9585161033 
904811.744804462 
904798.7287984862 
904752.5154158294 
904607.5444320592 
904202.2226428245 
903183.5283730524 
900863.246114 
896038.3368138534 
886816.3676824301 
870516.6481412144 
843727.0777351509 
802577.8720858938 
743208.8583747246 
662011.5880019316 
552033.0782619485 
368978.2417341579 
249409.13248977502 
2741529.4032166796 
2741529.357517169 
2741529.019712895 
2741527.1313354634 
2741517.9801271167 
2741479.4546975056 
2741338.096164382 
2740883.044577743 
2739586.88972512 
2736291.058593467 
2728744.72990977 
2713060.0897909575 
2683246.024874663 
2631055.179330115 
2546368.3980039246 
2418195.2947688205 
2236021.7022209438 
1989574.2707920347 
1653851.0415060874 
1088159.8350930773 
717572.26528622 
6543169.37650655 
6543169.270915469 
6543168.464168256 
6543163.775930881 
6543140.176351994 
6543037.305873343 
6542648.674762048 
6541370.324951812 
6537680.891273493 
6528254.422503879 
6506742.138213973 
6462510.225755993 
6379909.56762401 
6238719.379887928 
6016151.629690047 
5690040.454563303 
5241560.210038938 
4650051.163462287 
3842092.1585229095 
2467972.6755386726 
1567220.800969248 
11816552.543976417 
11816552.319506109 
11816550.553459 
11816539.932042843 
11816484.63112975 
11816235.997847669 
11815272.369385418 
11812046.368067276 
11802661.922967585 
11778738.725688916 
11724813.75715955 
11616398.151264172 
11420349.526875727 
11098984.857295677 
10617552.771368466 
9952438.035239605 
9092775.306401417 
8013398.838303198 
6539484.4881729 
4032663.434824092 
2399550.1223430736 
15491318.495143395 
15491318.054672541 
15491314.498540198 
15491292.456246609 
15491174.229834903 
15490627.982865619 
15488463.288992902 
15481113.29259332 
15459661.03082856 
15405459.11226064 
15285880.69379823 
15053628.861183003 
14653404.889561491 
14037270.752767097 
13184300.285906568 
12113548.549184315 
10870709.649966188 
9437821.230748534 
7476194.423427343 
4242334.7238952 
2195305.5559775983 
14755548.804665558 
14755548.00300769 
14755541.382386526 
14755499.246217016 
14755267.265339678 
14754169.380838824 
14749733.367246324 
14734497.981213795 
14690037.714840174 
14579320.442320868 
14342288.501690563 
13902830.735686874 
13193198.02803374 
12190803.398803523 
10950990.643018182 
9605145.959776398 
8291563.51674721 
6946197.839304365 
5028210.748947943 
2258710.3743766085 
696235.5819256841 
12410057.949405037 
12410056.58955874 
12410045.134122543 
12409970.525242642 
12409550.263303503 
12407518.866833221 
12399170.116210965 
12370223.921148935 
12285962.853421967 
12080035.721198477 
11655545.60894129 
10913248.63019656 
9809692.793139812 
8417857.867010215 
6942842.741836686 
5651398.608933269 
4668302.249631928 
3670495.4708397775 
1968085.6745597892 
248914.14994306723 
-349012.1179322032 
12978032.856403217 
12978030.700369542 
12978012.22377751 
12977889.46474337 
12977184.155945916 
12973711.854051247 
12959228.99455648 
12908622.307547221 
12761909.988136355 
12411138.744825693 
11719954.633706447 
10594688.856843544 
9085133.358698353 
7441817.6389696505 
6034103.551495743 
5132674.772555826 
4556893.71594269 
3506036.370714244 
1507592.1037864091 
71007.25406830921 
-146822.3791177189 
13989787.388712011 
13989784.187705174 
13989756.353499148 
13989568.269017957 
13988469.29879374 
13982973.770517306 
13959762.48365175 
13878143.565900866 
13642720.928672979 
13093108.067970498 
12064197.590530457 
10526710.661203802 
8709554.99225092 
7071098.122547881 
6021919.024184717 
5520477.388220285 
4862926.228985246 
3054341.8785947873 
695926.0361328577 
-422602.1237194999 
-493045.6861975314 
13158195.575986106 
13158191.116651542 
13158151.867535729 
13157882.892531905 
13156289.09423116 
13148214.41676401 
13113749.882555578 
12991943.154927123 
12642467.446029421 
11845957.629251942 
10434646.672984 
8526478.357383888 
6596101.748511851 
5211016.861059287 
4560488.411739125 
4022254.227913411 
2585891.950517036 
64101.02124870289 
-1572895.5053434456 
-1076965.8646063455 
-409831.0872560926 
13307073.4696443 
13307067.63180124 
13307015.743789587 
13306656.094959952 
13304500.729330147 
13293464.902544266 
13245958.803483497 
13077383.459641509 
12596147.456855722 
11523792.607410483 
9726127.437123574 
7554156.999263605 
5741069.793921957 
4713367.03513562 
4159587.158849128 
3073825.3659932986 
807675.6512179764 
-1207135.6008713949 
-1298304.6353631893 
-21928.732932890067 
754669.7778302841 
13518420.572265606 
13518413.38229147 
13518348.992682066 
13517898.779913252 
13515177.034106722 
13501127.17645634 
13440247.868524343 
13223560.152674934 
12607646.11572976 
11261710.669658506 
9118450.967591502 
6818678.97980708 
5305130.095269139 
4552747.156670686 
3623420.563186638 
1919898.4608484237 
-265643.009569349 
-817760.1919407637 
62771.84003178333 
166754.79946834454 
-43462.77567426488 
13278100.7034186 
13278092.364833955 
13278017.288871674 
13277489.101784145 
13274276.16312895 
13257594.469624534 
13184972.848386321 
12925938.63117523 
12192082.119790707 
10612367.77081761 
8200620.311689667 
5884657.329181904 
4734119.103598801 
4079488.4606289687 
2456846.671721543 
559880.8730296162 
-499267.7880674312 
-312003.62687050784 
361791.71973776375 
-119607.05508982064 
-757220.9429033161 
13431165.153618846 
13431156.041839615 
13431073.742420156 
13430492.59559101 
13426944.431942116 
13408458.409392431 
13327756.737815188 
13039536.694315799 
12224673.506851519 
10487152.674702117 
7907222.381242605 
5624696.362035808 
4763061.985181835 
4082670.520019049 