<?xml version="1.0"?>
<VTKFile type="UnstructuredGrid" version="0.1" byte_order="LittleEndian" compressor="vtkZLibDataCompressor">
<UnstructuredGrid>
<Piece NumberOfPoints="441" NumberOfCells="400">
<PointData>
<DataArray type="Float64" Name="displacement" NumberOfComponents="3" format="ascii" >
0.0 4.487728391240118e-09  0.
-3.4487496341400284e-15 4.487725969870622e-09  0.
-1.2947351148753245e-14 4.487714373992093e-09  0.
-4.1949587947544075e-14 4.487675194828114e-09  0.
-1.2406188748360407e-13 4.4875557025342606e-09  0.
-3.3749684832701815e-13 4.487220946180374e-09  0.
-8.485298393306456e-13 4.486354950208978e-09  0.
-1.9799334382188967e-12 4.484277434187327e-09  0.
-4.3039934685426466e-12 4.479637794269395e-09  0.
-8.746192644840936e-12 4.469958393341722e-09  0.
-1.6665884651954146e-11 4.451034971913222e-09  0.
-2.98601752105172e-11 4.416268566627235e-09  0.
-5.042805616045643e-11 4.356092986412693e-09  0.
-8.044664453715922e-11 4.2577480639845345e-09  0.
-1.214583932672521e-10 4.105688548536815e-09  0.
-1.7384362967400562e-10 3.882865826839744e-09  0.
-2.362444779761254e-10 3.572957269692428e-09  0.
-3.0537177444408675e-10 3.1634866877570796e-09  0.
-3.7740147029554764e-10 2.652690723473118e-09  0.
-4.718674898226798e-10 2.0952087833853576e-09  0.
-9.255875560062358e-10 2.143520555922967e-09  0.
0.0 1.1531943825803362e-08  0.
-7.16223238821262e-15 1.1531939479850533e-08  0.
-2.7736736579065097e-14 1.1531917959462982e-08  0.
-9.280450999119899e-14 1.1531842166623363e-08  0.
-2.827679934914608e-13 1.1531601781235777e-08  0.
-7.903575662737026e-13 1.1530904161754438e-08  0.
-2.036151627240242e-12 1.152904171070168e-08  0.
-4.855856615274481e-12 1.1524446923528985e-08  0.
-1.0762425042956776e-11 1.1513928409151068e-08  0.
-2.224883850738337e-11 1.149150055296398e-08  0.
-4.3039677979153435e-11 1.1446806983087453e-08  0.
-7.81384060211804e-11 1.1363312348251119e-08  0.
-1.3348406418384157e-10 1.121668232686509e-08  0.
-2.1506799705878004e-10 1.097401839348325e-08  0.
-3.274913987853648e-10 1.0594743792999899e-08  0.
-4.72164027023032e-10 1.0033821734611803e-08  0.
-6.456287497588578e-10 9.247590627704801e-09  0.
-8.393204898867118e-10 8.202510098469918e-09  0.
-1.0501001659361014e-09 6.895671439848019e-09  0.
-1.3961445030005024e-09 5.514998705634155e-09  0.
-3.2084462906171692e-09 5.911034896283552e-09  0.
0.0 4.8349157925842804e-08  0.
-2.5189691601567012e-14 4.8349144115853895e-08  0.
-1.0085507388867701e-13 4.8349073863791096e-08  0.
-3.4906889758686497e-13 4.8348818107884674e-08  0.
-1.096972734265443e-12 4.834798127472785e-08  0.
-3.152050305644996e-12 4.834548371898528e-08  0.
-8.321804502959802e-12 4.8338648081727516e-08  0.
-2.0278244032027788e-11 4.8321411194270026e-08  0.
-4.579868514211176e-11 4.828119109925328e-08  0.
-9.623901190143764e-11 4.819400118784181e-08  0.
-1.8881645877428216e-10 4.801775895433534e-08  0.
-3.46965993992448e-10 4.768448082217275e-08  0.
-5.988599777361974e-10 4.709312211020739e-08  0.
-9.73329417729501e-10 4.6105917238149454e-08  0.
-1.493060785567806e-09 4.4551670444619964e-08  0.
-2.165983900728723e-09 4.223899438082457e-08  0.
-2.977199124297748e-09 3.8980920227636694e-08  0.
-3.888000485953094e-09 3.463334247474823e-08  0.
-4.888447789851036e-09 2.9195846240726105e-08  0.
-6.5480952380321275e-09 2.3526193860682162e-08  0.
-1.4897920867689055e-08 2.5704957028926817e-08  0.
0.0 1.810501153882373e-07  0.
-8.020337342126672e-14 1.8105007416432603e-07  0.
-3.3113848095753427e-13 1.8104985901649495e-07  0.
-1.182000995260702e-12 1.8104905118298286e-07  0.
-3.819355192900287e-12 1.810463314799501e-07  0.
-1.1246809324975096e-11 1.8103800825670732e-07  0.
-3.033120705870936e-11 1.8101472981064474e-07  0.
-7.527034694657882e-11 1.8095494029001838e-07  0.
-1.7264727213149245e-10 1.8081326194248563e-07  0.
-3.6751957560038197e-10 1.8050219848520037e-07  0.
-7.288141084223781e-10 1.79866913926887e-07  0.
-1.3509971831279225e-09 1.7865569923856085e-07  0.
-2.34823165323714e-09 1.764928459754763e-07  0.
-3.837933087890497e-09 1.7286475768099736e-07  0.
-5.913235271388373e-09 1.6713224573799853e-07  0.
-8.608330729856592e-09 1.585800090069236e-07  0.
-1.1866712921804846e-08 1.4650890309972704e-07  0.
-1.5543692038580526e-08 1.3038760230300155e-07  0.
-1.966061778545649e-08 1.1030324118434223e-07  0.
-2.672166096671164e-08 9.003932148233317e-08  0.
-5.848464800963837e-08 9.994282482953378e-08  0.
0.0 5.789874236348602e-07  0.
-2.340459171805147e-13 5.789873108937645e-07  0.
-9.943509579367475e-13 5.789867083469772e-07  0.
-3.651227969325232e-12 5.78984381342122e-07  0.
-1.2097612750060459e-11 5.789763455161956e-07  0.
-3.6396940426880284e-11 5.789512159110971e-07  0.
-9.993375262414326e-11 5.78879674070018e-07  0.
-2.516422787055151e-10 5.786933180012528e-07  0.
-5.838860020644565e-10 5.78246987745269e-07  0.
-1.2539057399184955e-09 5.772595724423008e-07  0.
-2.5024633678387057e-09 5.752331252232633e-07  0.
-4.658733252859681e-09 5.713598254119747e-07  0.
-8.11824391678141e-09 5.644395606544753e-07  0.
-1.3283874903704196e-08 5.52843125085499e-07  0.
-2.0469977435583398e-08 5.345603965998721e-07  0.
-2.9785506795780847e-08 5.073640576878036e-07  0.
-4.1035068527871024e-08 4.6910464523561127e-07  0.
-5.377116064859089e-08 4.182270980619468e-07  0.
-6.838351711394964e-08 3.5555279647133943e-07  0.
-9.43543528105274e-08 2.956044720271454e-07  0.
-1.9711506198285006e-07 3.3446034670849364e-07  0.
0.0 1.5543919294810746e-06  0.
-6.286737897806384e-13 1.5543916468371981e-06  0.
-2.742302724755147e-12 1.554390102775292e-06  0.
-1.0331785189957494e-11 1.554383985833373e-06  0.
-3.500193760881471e-11 1.5543623840946634e-06  0.
-1.0725115936798167e-10 1.5542935930848814e-06  0.
-2.987241310342941e-10 1.5540950386982066e-06  0.
-7.60166179492806e-10 1.5535729352475304e-06  0.
-1.7761915289938415e-09 1.5523157815918862e-06  0.
-3.828952042591702e-09 1.5495301980657162e-06  0.
-7.64928126297136e-09 1.5438237152161218e-06  0.
-1.4220608888790897e-08 1.5329682865115712e-06  0.
-2.4697964949392997e-08 1.5137133675895045e-06  0.
-4.021864396729138e-08 1.481743173752595e-06  0.
-6.161773369051084e-08 1.4318694047716961e-06  0.
-8.910812225274976e-08 1.3585121921774087e-06  0.
-1.2206231265146555e-07 1.2564960252815076e-06  0.
-1.593949599049972e-07 1.1225729094024081e-06  0.
-2.0362122441557145e-07 9.615670279224633e-07  0.
-2.8538136581032874e-07 8.213825578977334e-07  0.
-5.635689253135563e-07 9.512162844152529e-07  0.
0.0 3.441385366868513e-06  0.
-1.5572093665891452e-12 3.4413847173819303e-06  0.
-6.9582735860147964e-12 3.4413810974091213e-06  0.
-2.682907920678131e-11 3.4413664244887206e-06  0.
-9.267720527851293e-11 3.4413135870405587e-06  0.
-2.8830991165499564e-10 3.4411428114677616e-06  0.
-8.116360944069443e-10 3.4406450527446344e-06  0.
-2.0783914391760765e-09 3.4393300548715044e-06  0.
-4.866687095997739e-09 3.4361646850847574e-06  0.
-1.0473595613625182e-08 3.4291859781809134e-06  0.
-2.0817383791514874e-08 3.4150233295790666e-06  0.
-3.8391301981230445e-08 3.3884397904291833e-06  0.
-6.598162685066237e-08 3.3420765624327848e-06  0.
-1.0612931838047497e-07 3.2666060209232808e-06  0.
-1.6041925715991385e-07 3.151432233113146e-06  0.
-2.2881616706523146e-07 2.985933560234053e-06  0.
-3.094655400633288e-07 2.761269801340293e-06  0.
-4.0062456430209375e-07 2.4743704398200698e-06  0.
-5.135444396056493e-07 2.1462781848200996e-06  0.
-7.309090475160261e-07 1.9101582809986876e-06  0.
-1.348329816550126e-06 2.272732928092066e-06  0.
0.0 6.193561514365299e-06  0.
-3.561296704952742e-12 6.193560147016945e-06  0.
-1.6264368364299097e-11 6.1935523859634575e-06  0.
-6.401723556366207e-11 6.193520279245836e-06  0.
-2.248841960842461e-10 6.1934027043037786e-06  0.
-7.081268770600695e-10 6.193018217479716e-06  0.
-2.007693508945176e-09 6.191890858281474e-06  0.
-5.151780257879457e-09 6.188912654916696e-06  0.
-1.2029378549598227e-08 6.181786742847976e-06  0.
-2.5698387505045215e-08 6.166261503037679e-06  0.
-5.0492677619071765e-08 6.135300187900598e-06  0.
-9.171060533565887e-08 6.078495859531471e-06  0.
-1.547484694474032e-07 5.982140417663381e-06  0.
-2.4376470041987694e-07 5.830278537364461e-06  0.
-3.6024822908956145e-07 5.606767437586038e-06  0.
-5.021276979970475e-07 5.298011399666499e-06  0.
-6.646301898282672e-07 4.896492622837865e-06  0.
-8.47587798953421e-07 4.410596556095179e-06  0.
-1.0893101414099927e-06 3.911458675712269e-06  0.
-1.5702603383305658e-06 3.7027365910772397e-06  0.
-2.6693174771257943e-06 4.527865082050902e-06  0.
0.0 9.093176835766917e-06  0.
-7.54215989525993e-12 9.09317418957162e-06  0.
-3.5126510785680846e-11 9.093158921462474e-06  0.
-1.4080402816572154e-10 9.093094606971013e-06  0.
-5.017609176991146e-10 9.092855690008647e-06  0.
-1.5947857369172158e-09 9.092067424936264e-06  0.
-4.538567098077402e-09 9.089750447550141e-06  0.
-1.162279393575591e-08 9.083656910836196e-06  0.
-2.6932397869117267e-08 9.069244969458215e-06  0.
-5.6791405330374854e-08 9.038426972176787e-06  0.
-1.0959597283458625e-07 8.978524426699887e-06  0.
-1.9463584851206728e-07 8.872132133106776e-06  0.
-3.1986907478279455e-07 8.698577714190097e-06  0.
-4.891673597729072e-07 8.437212647856794e-06  0.
-7.002068333955658e-07 8.071940491994985e-06  0.
-9.444231635636252e-07 7.595981999757407e-06  0.
-1.2121506875676895e-06 7.018266356948285e-06  0.
-1.5139077098039125e-06 6.387274582069056e-06  0.
-1.950707243887731e-06 5.8906827957133954e-06  0.
-2.825191708430241e-06 6.072776221830923e-06  0.
-4.370727613512919e-06 7.55341511897445e-06  0.
0.0 1.1406820320512102e-05  0.
-1.4873710764160593e-11 1.1406815575330048e-05  0.
-7.049850552003719e-11 1.1406787790976764e-05  0.
-2.8717786354987095e-10 1.1406668871069706e-05  0.
-1.035890253649917e-09 1.1406221690311447e-05  0.
-3.315335856508727e-09 1.1404736639297486e-05  0.
-9.442684775676131e-09 1.1400373796176913e-05  0.
-2.4044386091637858e-08 1.1388996113520353e-05  0.
-5.5041584905185396e-08 1.1362533572123454e-05  0.
-1.1394915933386619e-07 1.1307354605370663e-05  0.
-2.146499371607095e-07 1.1203645392526664e-05  0.
-3.701890190839764e-07 1.1026997664308858e-05  0.
-5.881515548535054e-07 1.0752879998575965e-05  0.
-8.66435110073565e-07 1.0363259529118433e-05  0.
-1.1917019728934208e-06 9.853454652667323e-06  0.
-1.5434953717230698e-06 9.237834862799643e-06  0.
-1.9096115424091237e-06 8.561837634716566e-06  0.
-2.3343143755565963e-06 7.956687755473906e-06  0.
-3.0222224002199744e-06 7.80402798011205e-06  0.
-4.325168071051288e-06 8.805565823926871e-06  0.
-6.066913661116333e-06 1.0814994465492048e-05  0.
0.0 1.3455291930863307e-05  0.
-2.745561568373062e-11 1.3455284006533017e-05  0.
-1.321974281157157e-10 1.3455236991796871e-05  0.
-5.462470243296942e-10 1.3455032897914963e-05  0.
-1.9909826280742317e-09 1.345425737346652e-05  0.
-6.404226817385476e-09 1.345166977546546e-05  0.
-1.8212312122977817e-08 1.3444089180798216e-05  0.
-4.596873701416166e-08 1.3424550122342537e-05  0.
-1.0354509005595944e-07 1.3380065192839512e-05  0.
-2.094511403985034e-07 1.329015591896952e-05  0.
-3.830223049237343e-07 1.3127966071208107e-05  0.
-6.376758241031582e-07 1.28653444924715e-05  0.
-9.735879238671671e-07 1.2481376257473442e-05  0.
-1.3739546501057975e-06 1.1971280632508723e-05  0.
-1.8081465749864663e-06 1.1351809380449183e-05  0.
-2.245469531631572e-06 1.0665182885595887e-05  0.
-2.68924171438566e-06 1.0004238797177781e-05  0.
-3.256687067504613e-06 9.620308651313471e-06  0.
-4.256650239169189e-06 1.0093385912243903e-05  0.
-5.878666722428363e-06 1.1908318078644475e-05  0.
-7.576002823004122e-06 1.3873978035815398e-05  0.
0.0 1.595866402494862e-05  0.
-4.7524746876921556e-11 1.5958651740002036e-05  0.
-2.320633434005571e-10 1.5958577986984227e-05  0.
-9.71075959300709e-10 1.595825377007646e-05  0.
-3.57112015932374e-09 1.5957010618149246e-05  0.
-1.1527941673946309e-08 1.595284887536685e-05  0.
-3.267461938150715e-08 1.5940711508699584e-05  0.
-8.155074728804792e-08 1.5909871351991828e-05  0.
-1.801603735769594e-07 1.58414128840425e-05  0.
-3.546539538382042e-07 1.5708039314850626e-05  0.
-6.268057284120175e-07 1.547869876255984e-05  0.
-1.0029358586109543e-06 1.5128361434452712e-05  0.
-1.4663205356628908e-06 1.4649104513343262e-05  0.
-1.9792181921250762e-06 1.4056248007998675e-05  0.
-2.498134949509608e-06 1.3386130272977625e-05  0.
-3.001377464682259e-06 1.2700647680652895e-05  0.
-3.5485662291392747e-06 1.2145598562656034e-05  0.
-4.362728041956551e-06 1.2112874578171558e-05  0.
-5.7537877831821275e-06 1.3218096023606827e-05  0.
-7.515961027072033e-06 1.5218105687199422e-05  0.
-9.095977121010287e-06 1.6606257665670084e-05  0.
0.0 1.8501737282779128e-05  0.
-7.72086925493031e-11 1.8501719646332276e-05  0.
-3.8169548228092894e-10 1.8501612652789575e-05  0.
-1.6149060028221673e-09 1.8501137099659545e-05  0.
-5.983745076065086e-09 1.8499299583536855e-05  0.
-1.9361106417439804e-08 1.8493134634730418e-05  0.
-5.462003105081662e-08 1.8475258980543782e-05  0.
-1.345429963711642e-07 1.843057332395407e-05  0.
-2.9072788426955813e-07 1.8334194446569114e-05  0.
-5.551273508453641e-07 1.8154120331488544e-05  0.
-9.450845951918875e-07 1.7860772609354744e-05  0.
-1.4497866165925783e-06 1.7440436488590967e-05  0.
-2.0295129856857166e-06 1.6903429568899607e-05  0.
-2.63151846839177e-06 1.6279385304274385e-05  0.
-3.2208458664986266e-06 1.5608092781727786e-05  0.
-3.822817740445626e-06 1.4962517550329889e-05  0.
-4.587769405098211e-06 1.4575163912808392e-05  0.
-5.814415635138705e-06 1.4975805266150825e-05  0.
-7.58989770095842e-06 1.6504506528213995e-05  0.
-9.32086058837457e-06 1.8079706541375364e-05  0.
-1.0738649113857975e-05 1.9104575522939813e-05  0.
0.0 2.0698485372556977e-05  0.
-1.1803174138446328e-10 2.0698461872166927e-05  0.
-5.898095947845264e-10 2.0698318010884103e-05  0.
-2.5192282189632347e-09 2.0697672528863676e-05  0.
-9.393548624535376e-09 2.069516241032217e-05  0.
-3.0434587816411666e-08 2.0686730789048404e-05  0.
-8.537712596001465e-08 2.0662445457362792e-05  0.
-2.0728920771249458e-07 2.0602799897972986e-05  0.
-4.3724070697600386e-07 2.0478140725890887e-05  0.
-8.077646839015925e-07 2.0255783649098383e-05  0.
-1.3219897479187974e-06 1.9914395489035133e-05  0.
-1.9442181681988463e-06 1.9456509381332397e-05  0.
-2.6166054663468505e-06 1.8906021208221053e-05  0.
-3.294955241845654e-06 1.8289364683220132e-05  0.
-3.984960868561077e-06 1.763474298049982e-05  0.
-4.7894071764745e-06 1.7052467260871795e-05  0.
-5.929529312949302e-06 1.691797481908142e-05  0.
-7.6266481470797145e-06 1.7793621041320506e-05  0.
-9.555646029480095e-06 1.9413617051701048e-05  0.
-1.1093076297247083e-05 2.0483096817344062e-05  0.
-1.2410250846755986e-05 2.1792986008711623e-05  0.
0.0 2.3146035697643282e-05  0.
-1.700810166757246e-10 2.314600676443028e-05  0.
-8.577685872425658e-10 2.3145828260190704e-05  0.
-3.6935884342798524e-09 2.3145020829622782e-05  0.
-1.3844929968073174e-08 2.314186399491595e-05  0.
-4.488704779743629e-08 2.3131253528500503e-05  0.
-1.2516433755706326e-07 2.3100902745287746e-05  0.
-2.9939702085402577e-07 2.3027689414374457e-05  0.
-6.158849669648535e-07 2.2879621503393108e-05  0.
-1.0993801836926853e-06 2.262831426348955e-05  0.
-1.729233515842469e-06 2.2265935843694586e-05  0.
-2.4461807663864447e-06 2.180925432720416e-05  0.
-3.193717809048103e-06 2.1281265704954158e-05  0.
-3.96893549193591e-06 2.068880985279837e-05  0.
-4.83862646981141e-06 2.0061605397115658e-05  0.
-5.960410519345286e-06 1.9616221358211776e-05  0.
-7.542693068890522e-06 1.986500749720081e-05  0.
-9.503611727334232e-06 2.1103412336937236e-05  0.
-1.1257024384014518e-05 2.235429454431865e-05  0.
-1.2564462494133494e-05 2.3044788003733583e-05  0.
-1.3987252608120433e-05 2.4604640353927866e-05  0.
0.0 2.5573822320047133e-05  0.
-2.3117341743890637e-10 2.5573789670425174e-05  0.
-1.1749040853138988e-09 2.5573586910422793e-05  0.
-5.0935012848194985e-09 2.5572663504206257e-05  0.
-1.9174133558622794e-08 2.556903712498062e-05  0.
-6.217754338026791e-08 2.5556845598112474e-05  0.
-1.7234525976414046e-07 2.5522203531182397e-05  0.
-4.0630657008192295e-07 2.5440076902449764e-05  0.
-8.153106261988221e-07 2.5279332608668848e-05  0.
-1.4064437615770156e-06 2.5020129198132818e-05  0.
-2.130070336950783e-06 2.4669418442142143e-05  0.
-2.918567758015755e-06 2.4249135300226505e-05  0.
-3.7458644735689535e-06 2.3764538792230793e-05  0.
-4.667832959331206e-06 2.3206019373644102e-05  0.
-5.79724972579972e-06 2.265002687962999e-05  0.
-7.257743418172608e-06 2.2453165396928195e-05  0.
-9.11406197098834e-06 2.311854287923192e-05  0.
-1.0963368268211795e-05 2.434939751889597e-05  0.
-1.239908332935287e-05 2.4981835113392085e-05  0.
-1.3717735714020221e-05 2.555981260186809e-05  0.
-1.5039829433029345e-05 2.668217616020788e-05  0.
0.0 2.78724229822389e-05  0.
-2.9678802633594317e-10 2.7872389512758267e-05  0.
-1.517849574660881e-09 2.7872180566082892e-05  0.
-6.61629069936038e-09 2.7871223827094467e-05  0.
-2.4991021774620278e-08 2.7867453574624067e-05  0.
-8.103284956584764e-08 2.785478002964898e-05  0.
-2.233708562079995e-07 2.7818989280057298e-05  0.
-5.196018384215261e-07 2.77354830208862e-05  0.
-1.0186676791530962e-06 2.757702875119702e-05  0.
-1.7012842851934934e-06 2.733407329150574e-05  0.
-2.4904447482562237e-06 2.7025002703191095e-05  0.
-3.3370919060010993e-06 2.6665942186160305e-05  0.
-4.271225243961369e-06 2.6236338248039638e-05  0.
-5.383484288834113e-06 2.5734290194191273e-05  0.
-6.777502109190297e-06 2.5325992541085405e-05  0.
-8.44951567289464e-06 2.543080294158717e-05  0.
-1.024578884052826e-05 2.627930816107528e-05  0.
-1.1801978013348543e-05 2.7068852856351804e-05  0.
-1.3078010204096847e-05 2.731149704860751e-05  0.
-1.4584067095779768e-05 2.8085740913396255e-05  0.
-1.5630862060173958e-05 2.854956372564218e-05  0.
0.0 3.0332124765430328e-05  0.
-3.601526995356953e-10 3.033209437268519e-05  0.
-1.8508469284152947e-09 3.0331903845524478e-05  0.
-8.101878480375049e-09 3.033102771778012e-05  0.
-3.0681238825878126e-08 3.0327565724692253e-05  0.
-9.946150024376611e-08 3.031593002321879e-05  0.
-2.7288755294681075e-07 3.028323663099955e-05  0.
-6.276021768985347e-07 3.0207974956201062e-05  0.
-1.2058007182113483e-06 3.0068976029094783e-05  0.
-1.9573718398330193e-06 2.9865408198113274e-05  0.
-2.7856007993333457e-06 2.9620374209945174e-05  0.
-3.6879558890672363e-06 2.9338242482562044e-05  0.
-4.759363826911311e-06 2.8979387137956483e-05  0.
-6.059377061372266e-06 2.857140667230442e-05  0.
-7.612455486842734e-06 2.8357620228012144e-05  0.
-9.305305199779564e-06 2.8662911491131515e-05  0.
-1.0873735269983391e-05 2.934088807186155e-05  0.
-1.232326714186507e-05 2.9663271983628416e-05  0.
-1.3701736055056486e-05 2.9872017309627352e-05  0.
-1.5099206102378854e-05 3.056399659984204e-05  0.
-1.6333405025554322e-05 3.083975252295304e-05  0.
0.0 3.266455050364685e-05  0.
-4.133496459051777e-10 3.2664527277939915e-05  0.
-2.1315446081744508e-09 3.266438125879254e-05  0.
-9.358500318055575e-09 3.2663707811055504e-05  0.
-3.5503867385344476e-08 3.266104178750585e-05  0.
-1.1506749260551747e-07 3.265208342313089e-05  0.
-3.1457834152767963e-07 3.262701035443769e-05  0.
-7.172152618546858e-07 3.2569880733605546e-05  0.
-1.356498606257769e-06 3.246658108447722e-05  0.
-2.1532947112840417e-06 3.232083071243932e-05  0.
-3.0008704869102566e-06 3.215299876123994e-05  0.
-3.957708295095146e-06 3.195819576292205e-05  0.
-5.172574744841047e-06 3.169483464628751e-05  0.
-6.605541815066616e-06 3.141472735303772e-05  0.
-8.171216196422833e-06 3.1358613340338005e-05  0.
-9.806485873818158e-06 3.166555436020028e-05  0.
-1.127823378101699e-05 3.2024536582429805e-05  0.
-1.2760721377140854e-05 3.216443823738799e-05  0.
-1.4219644280599946e-05 3.24410583258956e-05  0.
-1.539277507972795e-05 3.274457851719448e-05  0.
-1.6808762285224992e-05 3.303666660177839e-05  0.
0.0 3.507469998258778e-05  0.
-4.4889711376557194e-10 3.5074687381245283e-05  0.
-2.319619502972203e-09 3.507460801720859e-05  0.
-1.0202420995299829e-08 3.5074241324585325e-05  0.
-3.874686494611142e-08 3.5072788031380275e-05  0.
-1.2555584912911604e-07 3.506790536866516e-05  0.
-3.4248660389589685e-07 3.505427230952889e-05  0.
-7.765938442256361e-07 3.50234078941365e-05  0.
-1.454219198640928e-06 3.4968350988818774e-05  0.
-2.2755342553088565e-06 3.489255381507329e-05  0.
-3.1308154510134776e-06 3.48077628960518e-05  0.
-4.130269099516785e-06 3.4708096996798736e-05  0.
-5.454423647955829e-06 3.4567688271865475e-05  0.
-6.950894020932053e-06 3.4427949828817894e-05  0.
-8.45390090863529e-06 3.443603764773636e-05  0.
-1.007484064511177e-05 3.461320317519308e-05  0.
-1.159876403781485e-05 3.4738627780827165e-05  0.
-1.2993917005538048e-05 3.4805810533790594e-05  0.
-1.442221429496961e-05 3.501793732587874e-05  0.
-1.5662492299105578e-05 3.515042384369261e-05  0.
-1.6907003514462436e-05 3.525400686652265e-05  0.
0.0 3.745000000000007e-05  0.
-4.613996278224726e-10 3.745000000000007e-05  0.
-2.385857338361062e-09 3.745000000000007e-05  0.
-1.0499983613956269e-08 3.745000000000007e-05  0.
-3.98910614344159e-08 3.745000000000007e-05  0.
-1.292551778413045e-07 3.745000000000007e-05  0.
-3.5230970349689895e-07 3.745000000000007e-05  0.
-7.973824558445848e-07 3.745000000000007e-05  0.
-1.4880404070776186e-06 3.745000000000007e-05  0.
-2.316959646048222e-06 3.745000000000007e-05  0.
-3.174118242203634e-06 3.745000000000007e-05  0.
-4.189952282498061e-06 3.745000000000007e-05  0.
-5.554850288118285e-06 3.745000000000007e-05  0.
-7.067417171242196e-06 3.745000000000007e-05  0.
-8.535055332913541e-06 3.745000000000007e-05  0.
-1.0165107393789325e-05 3.745000000000007e-05  0.
-1.1728128981318251e-05 3.745000000000007e-05  0.
-1.303526036505082e-05 3.745000000000007e-05  0.
-1.445829838678972e-05 3.745000000000007e-05  0.
-1.5800359550235516e-05 3.745000000000007e-05  0.
-1.6952278799920395e-05 3.745000000000007e-05  0.
</DataArray>
<DataArray type="Float64" Name="sigma_xx" NumberOfComponents="1" format="ascii" >
39447.82374496468 
39447.756554344945 
39447.45781782054 
39446.542944054905 
39444.01508116922 
39437.57438755745 
39422.35381053093 
39388.84787191286 
39319.87296612592 
39186.6197954449 
38944.24637504999 
38527.96107553512 
37851.01093635722 
36806.21322603715 
35272.425108212585 
33126.45263565671 
30258.548594364045 
26575.441644821607 
21842.16805753424 
13753.221234980012 
8341.241501397253 
122815.80940723952 
122815.65201763262 
122814.9366025721 
122812.68142412257 
122806.27217156609 
122789.51171268977 
122748.95076117007 
122657.70852957487 
122466.15315391615 
122089.44597764389 
121393.16188774502 
120179.8412734156 
118180.97904493782 
115059.89267885927 
110430.40126445243 
103893.59271737727 
95087.71380651588 
83705.92496647064 
69070.2764644113 
45741.311638333704 
30677.62615042711 
474703.57274144155 
474703.0407285411 
474700.57423390483 
474692.60731129436 
474669.4611743983 
474607.8020232939 
474456.3145700679 
474111.4470507039 
473380.8102076352 
471934.50329851266 
469249.58347031847 
464559.39868977596 
456825.56854712265 
444753.2223018856 
426866.86752342875 
401652.81051053037 
367742.4769083669 
323928.8862041805 
267317.5632821461 
177259.5312448499 
119284.48615091675 
1486278.6125290345 
1486276.9767252754 
1486269.267581724 
1486243.8799770945 
1486168.9078165342 
1485966.7069100658 
1485465.7096338482 
1484319.661259314 
1481888.0356077864 
1477081.8610852882 
1468196.517820094 
1452773.408915547 
1427547.6249361117 
1388539.6917428179 
1331329.3899518931 
1251504.4189905617 
1145153.45452891 
1008535.5901065401 
830800.3288084812 
544380.0970642702 
359327.49965374975 
3848461.0313528776 
3848456.40967899 
3848434.304263966 
3848360.2791847885 
3848138.8049460594 
3847536.4199023517 
3846038.1090482045 
3842612.478229847 
3835377.9075189624 
3821199.187898235 
3795297.515947642 
3751006.1565389037 
3679822.5662172763 
3571868.164693841 
3416769.2362157265 
3204811.006498272 
2927788.3928349055 
2576390.3304858548 
2115780.0424610926 
1363944.5405494715 
877015.1570605617 
8027339.603752901 
8027327.56583029 
8027269.225595107 
8027071.084578687 
8026472.46824239 
8024837.102700235 
8020773.6025102865 
8011542.032915963 
7992269.811616013 
7955119.04140027 
7888683.340720091 
7777971.58679143 
7605269.757053045 
7351931.313250537 
7000768.432345453 
6538258.319986678 
5954441.303086494 
5230787.7724576 
4272701.630207893 
2688918.4368300084 
1662889.7669769486 
13020832.929990597 
13020803.98485674 
13020662.07910468 
13020174.528521314 
13018691.965035293 
13014640.32268063 
13004633.786895476 
12982184.3867388 
12936203.56524651 
12849808.850128582 
12700206.316342935 
12460391.474732488 
12102907.564759161 
11605006.615022087 
10953557.681441186 
10147055.643809512 
9188544.743862852 
8045217.869738674 
6502428.345491283 
3931505.705604242 
2277073.7373167854 
15869721.403671112 
15869656.977419205 
15869337.942804143 
15868231.659773428 
15864855.700720485 
15855661.604042001 
15833202.440758726 
15783754.416854614 
15685163.611512873 
15506349.781756487 
15210118.960319836 
14760146.894733358 
14131196.06834811 
13319313.190910364 
12347366.536580477 
11259826.653381187 
10093139.159223326 
8776256.298208974 
6910083.316581441 
3852853.1084354506 
1945452.293660186 
14635562.756535936 
14635429.322331052 
14634762.746176539 
14632434.22007886 
14625320.250789687 
14606075.735368231 
14559785.14074953 
14460356.676359918 
14268863.377055794 
13936946.04197767 
13417628.563884914 
12682669.650068743 
11740953.30584409 
10649172.858284699 
9506008.633834297 
8421707.525511244 
7440076.80489196 
6363157.549697485 
4604456.667049509 
2041880.4245500665 
628386.2713673576 
12240484.217455722 
12240225.708820684 
12238924.252504637 
12234350.76156085 
12220387.425369997 
12182965.892674182 
12094678.14374448 
11910709.355204904 
11571088.394751024 
11014354.736297973 
10203238.161457948 
9154542.741771126 
7957412.349792057 
6764885.361788403 
5750397.951140382 
5026773.890381343 
4502782.680290805 
3694840.218774818 
1996174.0423695452 
262408.4109692676 
-338536.8638103758 
12774143.4645552 
12773673.7969587 
12771293.043358523 
12762887.074956564 
12737278.36421403 
12669440.46821439 
12513039.185273528 
12198675.49990284 
11646988.109852213 
10801727.37181957 
9674309.346548839 
8375892.878964916 
7108379.305553288 
6100921.317958316 
5506559.361514058 
5267064.450788156 
4953417.728098173 
3772783.135729013 
1560177.9076973354 
11952.220201535849 
-246991.737787175 
14165169.525496896 
14164368.326117266 
14160282.87902286 
14145805.663243536 
14101851.502504248 
13986981.294420252 
13729064.83467928 
13231922.258898653 
12410077.673042148 
11249309.192678938 
9861858.686198812 
8487281.351695526 
7411839.039015905 
6824952.054129654 
6679229.208816433 
6579181.035872142 
5757540.34993537 
3583415.088631522 
995141.2795640491 
-185490.84305211063 
-243489.58578434214 
13302272.25205521 
13300986.146258503 
13294394.365587264 
13270971.469724832 
13200158.746892747 
13017814.598134497 
12620173.15738727 
11889175.17677271 
10761753.994228136 
9316601.76072683 
7808741.7993292995 
6583454.099967971 
5889390.438977465 
5698278.895648212 
5625794.618307284 
5000802.840105273 
3124239.510618743 
338760.8976496598 
-1266041.155236499 
-797943.7559810558 
-181678.94622375863 
13033048.328055486 
13031102.00552631 
13021082.24651235 
12985404.673758825 
12878046.71858371 
12605817.075905789 
12030272.095929917 
11026124.560658894 
9596047.346497035 
7962475.683549555 
6521942.00730314 
5620151.42660785 
5283248.432544588 
5149661.103948658 
4598732.124130715 
3039548.5006713914 
459464.12805965054 
-1669474.502780765 
-1483564.8318891358 
-75543.55142528308 
506945.0894430196 
13682415.24852516 
13679635.413874272 
13665271.296814669 
13614047.556741366 
13460651.406237122 
13077604.803473435 
12293106.512367962 
10999334.583971176 
9316747.931233242 
7642001.582267262 
6441186.666653708 
5889594.183418452 
5653581.93722415 
5120693.302638391 
3811319.5094875125 
1614197.3441710258 
-564224.1943698274 
-1108559.8995353465 
-13000.43377575581 
265471.70292823017 
-223655.36437419523 
13262759.650950206 
13259007.960126985 
13239562.106238222 
13170141.916385392 
12963218.904066287 
12453990.276824024 
11443096.522171987 
9870695.711339775 
8023704.408534241 
6465659.166495893 
5587566.8766928725 
5222495.764530119 
4727775.066772411 
3540792.2390916697 
1728548.8252938883 
-246837.21404261934 
-1268373.5571824282 
-646167.5170556011 
-41911.735444877064 
-381324.4643648651 
-652226.8065738655 
13351903.631943956 
13347114.694383765 
13322230.812824732 
13233330.725162687 
12969453.042798469 
12328518.171550153 
11092524.275577191 
9278035.156662088 
7370086.668679057 
6052144.398596583 
5459985.229961971 
4991572.837006597 
3994630.6402646676 
2327574.7332779653 
610466.3283276998 
-434195.3337381466 
-588303.8417732962 
-20812.091382076964 
-292681.84571191436 
-95365.45997017855 
787149.4092577621 
13446425.278115764 
13440639.489433857 
13410518.539182669 
13302855.00071372 
12984405.695153678 
12219378.468079641 
10780615.911501758 
8777897.267477663 
6898406.5992207015 
5877477.158362456 
5448498.329353281 
4600897.548665414 
3113931.530989458 
1491512.7756661652 
280019.3429998874 
30473.44378115656 
4836.123485752614 
-49361.81525220745 
-187806.18813428702 
-219568.51436116477 
31124.599511848297 
13306479.973529307 
13299860.010907447 
13265349.870182917 
13141959.22226851 
12777958.058929805 
11910727.682818526 
10311145.029155198 
8179503.544025634 
6377186.339480152 
5632959.866659112 
5234647.557702288 
3881570.0783077665 
2111576.9392796857 
1033338.1241854653 
249598.2611085577 
33494.57141356659 
-10696.663973882794 
-353603.19456164655 
149056.07204569224 
-220208.9913695408 
-1158921.072040455 
13426745.088144626 
13419569.122774234 
13382130.462290557 
13248246.16937323 
12853938.373531282 
11919345.011612931 
10216637.74591661 
8012046.449494874 
6284517.091196026 
5732713.10077969 
5296037.443685028 