<?xml version="1.0"?>
<VTKFile type="UnstructuredGrid" version="0.1" byte_order="LittleEndian" compressor="vtkZLibDataCompressor">
<UnstructuredGrid>
<Piece NumberOfPoints="441" NumberOfCells="400">
<PointData>
<DataArray type="Float64" Name="displacement" NumberOfComponents="3" format="ascii" >
0.0 -4.4699072566408664e-43  0.
1.1308254437006452e-42 1.577195890931138e-42  0.
1.7980612840260118e-42 -9.082930877460571e-43  0.
8.189747660457927e-43 -7.218275897465443e-44  0.
-2.4783284691459884e-42 -3.222232848396845e-42  0.
-1.6012697710322146e-41 -1.0308565437994842e-41  0.
-5.731325628980128e-41 -3.097425411292275e-41  0.
-1.9836522706825448e-40 -1.1004206878806695e-40  0.
-5.957989738434275e-40 -2.872846910228558e-40  0.
-1.721873859892612e-39 -8.385896118292236e-40  0.
-4.594046200204712e-39 -2.033226528506306e-39  0.
-1.094297567645351e-38 -4.3152812586203716e-39  0.
-2.3346995370708313e-38 -8.088155347944778e-39  0.
-4.337477636704599e-38 -1.194067294415128e-38  0.
-7.123194208877434e-38 -1.5915013625385835e-38  0.
-1.017961367847715e-37 -1.4655865990931096e-38  0.
-1.269932853166318e-37 -1.0528383529856878e-38  0.
-1.3548608428616805e-37 1.9469848155941684e-39  0.
-1.1960157826884061e-37 1.4604869460674517e-38  0.
-7.411971700458084e-38 2.5237311317628373e-38  0.
-4.250682163759008e-38 5.393496366171507e-38  0.
0.0 1.6838518134268955e-39  0.
1.2676466116366733e-39 -4.164988825466879e-40  0.
1.7959611013823892e-39 9.48790768128845e-40  0.
1.7873452421673822e-39 -9.616668963862992e-40  0.
3.2523356166737646e-40 -5.0167219039430346e-40  0.
-2.648314043575162e-39 -2.4863877811066795e-39  0.
-1.2818434196237567e-38 -7.724146292685512e-39  0.
-4.119304323059739e-38 -2.079386413899262e-38  0.
-1.3381468139885347e-37 -7.221888039479364e-38  0.
-3.85965298239208e-37 -1.8107055085681297e-37  0.
-1.1211769901213429e-36 -5.569988792340519e-37  0.
-3.0477551017487716e-36 -1.375933753628277e-36  0.
-7.222462343878765e-36 -2.8109954881289975e-36  0.
-1.5040792310976923e-35 -5.028648920110078e-36  0.
-2.658274975068027e-35 -6.537026095765212e-36  0.
-4.0734447473075134e-35 -7.653469911306965e-36  0.
-5.313581162191592e-35 -4.758391164143619e-36  0.
-5.868798533265824e-35 -8.512871975903775e-37  0.
-5.308772400468831e-35 6.7890621697278e-36  0.
-3.30594784727604e-35 1.075006372751588e-35  0.
-1.9468770290078345e-35 2.463601692684552e-35  0.
0.0 -3.412971844362783e-37  0.
1.504808024066653e-36 1.843431638991917e-36  0.
2.4595825893779438e-36 -8.759872419274194e-37  0.
1.994272523410423e-36 4.001147617991634e-37  0.
1.2271199701378828e-36 -1.1644698145455227e-36  0.
-8.917740605931227e-37 -9.624067342250975e-37  0.
-4.7604849772328314e-36 -2.9253880093997115e-36  0.
-1.7600421194488735e-35 -9.975737543319492e-36  0.
-5.271978026162563e-35 -2.531512779465233e-35  0.
-1.665648198340056e-34 -8.90715476105748e-35  0.
-4.8502605895500655e-34 -2.3084884568096635e-34  0.
-1.4211275324801201e-33 -7.088203267947448e-34  0.
-3.8925789628062006e-33 -1.7718131101011082e-33  0.
-9.113674213070183e-33 -3.4664190298574546e-33  0.
-1.8113889659103957e-32 -5.5436640849325175e-33  0.
-2.993529715724446e-32 -6.338899467362901e-33  0.
-4.1767043000410896e-32 -5.4729423560673736e-33  0.
-4.805611961960766e-32 -8.949355305744852e-34  0.
-4.4565638269429625e-32 4.7050646778827415e-33  0.
-2.8163291392768166e-32 9.499419492469439e-33  0.
-1.6158759074466498e-32 2.0704152695918856e-32  0.
0.0 1.935975802073985e-33  0.
1.661640667700132e-33 -2.8884987045628373e-34  0.
2.07770034880561e-33 7.433160048394276e-34  0.
1.89402207164967e-33 -9.565573222192998e-34  0.
8.152966714394626e-34 -1.1160850294355404e-34  0.
1.5841548121633387e-35 -6.947724841108346e-34  0.
-1.760960858479624e-33 -1.088837236690577e-33  0.
-5.7387930483345854e-33 -2.919875766546795e-33  0.
-1.9968504223978535e-32 -1.1360960447621184e-32  0.
-6.102334553749584e-32 -2.9996911787275875e-32  0.
-2.1944581707053826e-31 -1.2890149633505163e-31  0.
-7.468596428563412e-31 -3.980172322315579e-31  0.
-2.010202735844923e-30 -8.806285472124593e-31  0.
-5.080152723227482e-30 -2.1866527202744413e-30  0.
-1.1461081319417227e-29 -4.181581145665327e-30  0.
-2.061884812455822e-29 -5.1364160635730594e-30  0.
-3.149531668559113e-29 -5.574847777021348e-30  0.
-3.8143201346464736e-29 -1.2059786434504868e-30  0.
-3.663598315064831e-29 3.0033419757727372e-30  0.
-2.3429737626832818e-29 8.092560065406508e-30  0.
-1.3015614002571867e-29 1.7285657308192927e-29  0.
0.0 8.44825456286183e-31  0.
1.5085714542933075e-30 6.090258353690554e-31  0.
1.6708075849895698e-30 -3.3801672603031e-31  0.
1.0849655041841829e-30 -3.136206729540317e-31  0.
3.654790191484599e-31 -3.912880166970946e-31  0.
-1.6464229127495546e-32 6.55106282445158e-33  0.
-3.146918861493758e-31 -3.082596825210688e-31  0.
-1.6150225803976083e-30 -1.0033253708721373e-30  0.
-5.004002395552977e-30 -2.396167640933749e-30  0.
-1.9006879824607095e-29 -1.174622878577059e-29  0.
-6.6295725905565e-29 -3.542079626767443e-29  0.
-3.578121014357301e-28 -2.5707713722696016e-28  0.
-1.4976456314646457e-27 -9.444670155481004e-28  0.
-3.435701812456395e-27 -8.868625406962341e-28  0.
-6.553521054864615e-27 -2.259659599853588e-27  0.
-1.3192441525300923e-26 -4.779308270722276e-27  0.
-2.1418885409441137e-26 -2.8037762621172826e-27  0.
-2.7294649849811067e-26 -3.337061458128625e-27  0.
-2.8190667002772613e-26 2.525923992126992e-27  0.
-1.9289729338141923e-26 4.092456151106484e-27  0.
-1.3499957254163804e-26 1.7401423709193386e-26  0.
0.0 2.0684941256691726e-28  0.
1.2922812573449773e-27 9.173409183391999e-28  0.
1.1746311295247086e-27 -7.720203550209293e-28  0.
2.4556677508526308e-28 -2.536935677628265e-28  0.
-6.128721540290502e-30 4.4687232609240265e-30  0.
-5.67326813748342e-31 3.590943333101795e-31  0.
-4.3422721199092344e-30 -4.7378960959795025e-30  0.
-2.1396888098160755e-28 -2.076494399931221e-28  0.
-1.1269548886653123e-27 -7.058265115019888e-28  0.
-3.316726384753909e-27 -1.5464780981488367e-27  0.
-1.5286443408590616e-26 -1.0392673166172932e-26  0.
-7.300516812559189e-26 -5.0908579955444344e-26  0.
-5.883684588349764e-25 -4.51808770418008e-25  0.
-2.7002205486554894e-24 -1.0811809986675337e-24  0.
-3.8676233009433934e-24 -4.552381274393493e-26  0.
-5.765182993505988e-24 -1.8549481459758494e-24  0.
-1.1829595435192581e-23 -2.6408299136417226e-24  0.
-1.3479537454094972e-23 7.639897307359596e-25  0.
-1.453555551827365e-23 -1.8172350000738733e-24  0.
-1.501678525314873e-23 -5.185513902574716e-25  0.
-1.708221973765246e-23 1.5419708733180702e-23  0.
0.0 3.9394740884904407e-20  0.
1.1857232414464624e-24 3.9392714462714446e-20  0.
8.649070126422093e-26 3.9393226908204676e-20  0.
-1.8879672909869275e-27 3.939332625708412e-20  0.
-1.279277517582935e-28 3.939332534479677e-20  0.
1.73121500037631e-30 3.939332520175912e-20  0.
-1.2876248771535902e-28 3.9393325066076047e-20  0.
-4.887551848883427e-27 3.9393320174375796e-20  0.
-1.166917224840832e-25 3.9393215270219066e-20  0.
-8.930656332620155e-25 3.939272461210797e-20  0.
-2.3625864087804984e-24 3.9392582429693284e-20  0.
-9.565717028395442e-24 3.938659008895779e-20  0.
-1.1879897156599164e-22 3.9313454109123946e-20  0.
-4.281298906552156e-22 3.8638212893665254e-20  0.
-4.505004858209763e-22 3.70164635503545e-20  0.
-1.0186743687745587e-21 3.586018308194724e-20  0.
-1.768926563546472e-21 3.2493095986632564e-20  0.
-1.7942001530206888e-21 2.856933767829799e-20  0.
-2.6494848471184613e-21 2.5102691201913324e-20  0.
-3.4473344894398274e-21 1.9509172078334427e-20  0.
-1.0378493907083151e-20 1.9746553078990423e-20  0.
0.0 2.0988456528338814e-18  0.
1.670604475691044e-23 2.09947528670138e-18  0.
-2.871861916624374e-25 2.0994897037471248e-18  0.
-2.3210548087577828e-26 2.0994896096137712e-18  0.
3.294035047532989e-28 2.099489583085889e-18  0.
1.1644570370879272e-29 2.0994895830991474e-18  0.
-5.005513193032928e-28 2.0994895823382013e-18  0.
-8.810247932425775e-26 2.0994894860282214e-18  0.
-3.648703823719354e-24 2.0994859307585593e-18  0.
-1.176791892357174e-22 2.099397968935274e-18  0.
-4.297982701713774e-22 2.098407921496068e-18  0.
-9.385211997501447e-22 2.0973813060424914e-18  0.
-4.040972773549381e-21 2.0935226698963413e-18  0.
-9.049354730357506e-21 2.0808202546416297e-18  0.
-2.0059541190912083e-20 2.0543338996382286e-18  0.
-3.864504286760495e-20 1.999444300558963e-18  0.
-6.578295258132394e-20 1.8993335542771507e-18  0.
-1.0151363378569704e-19 1.740539422063732e-18  0.
-1.416752176374925e-19 1.5045141086346412e-18  0.
-1.9287012912830144e-19 1.198272330989388e-18  0.
-6.338231864258501e-19 1.2183433144290852e-18  0.
0.0 8.903836820271999e-17  0.
-3.2560860430050675e-23 8.903839269535829e-17  0.
-2.3245336972776486e-24 8.903842640593329e-17  0.
4.405983513964246e-26 8.903842370593407e-17  0.
1.9241957701545963e-27 8.903842369084226e-17  0.
4.27257888254004e-29 8.903842369290057e-17  0.
-3.6999332870482224e-27 8.903842368804099e-17  0.
-9.035109308990692e-25 8.903842276995459e-17  0.
-3.6834275767874914e-23 8.90383810817072e-17  0.
-1.5518531195687188e-21 8.903672828283597e-17  0.
-9.186639570819428e-21 8.902507701294722e-17  0.
-3.6423009711149613e-20 8.898318733584529e-17  0.
-1.185077657648991e-19 8.883497103400864e-17  0.
-3.153551918595467e-19 8.842721604340586e-17  0.
-7.253463544476772e-19 8.744429361838123e-17  0.
-1.462835401903113e-18 8.53689402379484e-17  0.
-2.6063444831534054e-18 8.150193660103746e-17  0.
-4.170158237052775e-18 7.504952705747693e-17  0.
-6.050064026700602e-18 6.533097479246037e-17  0.
-8.399413963588785e-18 5.2396320195918877e-17  0.
-2.7981059427739136e-17 5.35157754118698e-17  0.
0.0 3.2118227835906346e-15  0.
-1.2174370860782688e-22 3.211824879951994e-15  0.
4.735863597807744e-24 3.2118247406093123e-15  0.
1.692100338236377e-25 3.211824740773677e-15  0.
4.4201652259045654e-27 3.2118247409654026e-15  0.
4.161371804077483e-29 3.211824740973489e-15  0.
-3.054753496513911e-27 3.211824740962603e-15  0.
-2.7116823014424063e-24 3.2118247360143104e-15  0.
-3.4131021975987733e-22 3.2118238985024244e-15  0.
-1.2425893466791881e-20 3.211812377967262e-15  0.
-1.3930486780368662e-19 3.2116798166628574e-15  0.
-7.255482712803392e-19 3.2109056279040332e-15  0.
-2.8673680720285713e-18 3.207614266023955e-15  0.
-8.642658485816107e-18 3.196937931969819e-15  0.
-2.1900369078477907e-17 3.1684201829685706e-15  0.
-4.692322319710439e-17 3.1038701098239417e-15  0.
-8.826771360782128e-17 2.9766168841976176e-15  0.
-1.4657848598292311e-16 2.7550190024709176e-15  0.
-2.1901431887945587e-16 2.41019146109248e-15  0.
-3.109446116874163e-16 1.9417171706999035e-15  0.
-1.0420277552786487e-15 1.991179242402712e-15  0.
0.0 9.715702653154426e-14  0.
6.517715712787725e-22 9.715702476775768e-14  0.
9.817675090301197e-24 9.715702485892564e-14  0.
2.2674813697063517e-25 9.715702487046327e-14  0.
3.333817746176186e-27 9.715702487100919e-14  0.
2.275066557314809e-29 9.715702487102447e-14  0.
-3.3481588750499985e-26 9.715702487097728e-14  0.
-4.2305808512749225e-25 9.71570248612891e-14  0.
-1.6616382744193879e-21 9.715702358488308e-14  0.
-5.90459731239542e-20 9.715698913187745e-14  0.
-9.86399094009303e-19 9.715623169517408e-14  0.
-1.0584232022543932e-17 9.71462930065305e-14  0.
-5.1042732454835415e-17 9.709155604030099e-14  0.
-1.8840169778609648e-16 9.687430621777162e-14  0.
-5.269731120955781e-16 9.621798758676798e-14  0.
-1.2414427921827994e-15 9.458294922742608e-14  0.
-2.467733464976383e-15 9.113624087127488e-14  0.
-4.306838499815771e-15 8.481886601530986e-14  0.
-6.632340372341723e-15 7.46197834342034e-14  0.
-9.687500648586804e-15 6.043734447493153e-14  0.
-3.2602701806256185e-14 6.225133398275857e-14  0.
0.0 2.422874165165643e-12  0.
6.440020454881865e-22 2.422874166088149e-12  0.
-3.775550060586838e-24 2.4228741664877793e-12  0.
-6.991025610180018e-26 2.422874166505065e-12  0.
3.390586580027762e-27 2.4228741665057616e-12  0.
2.2002606522277194e-28 2.422874166505782e-12  0.
-3.463280597635164e-26 2.4228741665056626e-12  0.
-6.918004760185059e-23 2.4228741663274618e-12  0.
-5.814984163996068e-21 2.422874163080226e-12  0.
-2.162743602291646e-19 2.422874035477868e-12  0.
-4.656680162831491e-18 2.422870973447533e-12  0.
-7.086401729025081e-17 2.4228169641713288e-12  0.
-6.717695944648853e-16 2.4221906955856366e-12  0.
-2.9582086091349622e-15 2.4190174135755663e-12  0.
-1.0071593491226278e-14 2.4073592988224514e-12  0.
-2.593172380808579e-14 2.374759454963441e-12  0.
-5.63712312138864e-14 2.2996130221229017e-12  0.
-1.0311934365119204e-13 2.15323872666512e-12  0.
-1.6599583099005828e-13 1.9061555644140377e-12  0.
-2.493249973623747e-13 1.5532896114400233e-12  0.
-8.440594667021571e-13 1.6088491905877565e-12  0.
0.0 4.878781349951821e-11  0.
-1.6274732923997752e-21 4.8787813498475915e-11  0.
-1.263869255378235e-23 4.878781349810064e-11  0.
3.100516450628329e-26 4.8787813498097706e-11  0.
3.388036167444399e-27 4.878781349809832e-11  0.
-8.472763528877715e-28 4.878781349809834e-11  0.
-9.559668744869823e-26 4.87878134980981e-11  0.
-8.899905451775394e-23 4.878781349815487e-11  0.
-1.91359703900354e-20 4.878781348754288e-11  0.
-6.501919940269461e-19 4.8787813166274326e-11  0.
-1.638573768225201e-17 4.878780405790672e-11  0.
-3.1210598771025666e-16 4.878760508755539e-11  0.
-4.174812469849029e-15 4.878448707515119e-11  0.
-3.451654830003002e-14 4.875259896412847e-11  0.
-1.3757375211801434e-13 4.8605196470303806e-11  0.
-4.2785214557590943e-13 4.8108373729936995e-11  0.
-1.0042626632817648e-12 4.683372532069963e-11  0.
-1.9951317602240748e-12 4.414085475585576e-11  0.
-3.3356186492832843e-12 3.934890627498214e-11  0.
-5.2293936134656625e-12 3.2293812796411e-11  0.
-1.7693385394486148e-11 3.3667936225134235e-11  0.
0.0 7.73087062751728e-10  0.
-1.878134787424324e-21 7.730870627463823e-10  0.
-3.364592183341249e-25 7.730870627465336e-10  0.
-1.3804645292132753e-24 7.730870627465366e-10  0.
-4.8468018764911957e-26 7.730870627465363e-10  0.
1.0504126795281305e-26 7.730870627465363e-10  0.
-7.364988846632631e-25 7.73087062746535e-10  0.
-1.7552349978603838e-22 7.730870627463056e-10  0.
-4.711609455219159e-20 7.730870627293444e-10  0.
-1.631332253028652e-18 7.730870620423694e-10  0.
-4.616324089096681e-17 7.730870403928805e-10  0.
-1.0266889354401831e-15 7.73086495001871e-10  0.
-1.707793750286921e-14 7.730759952347645e-10  0.
-1.97533021000281e-13 7.729319628424684e-10  0.
-1.4002667917329064e-12 7.716536475224547e-10  0.
-4.998311533563719e-12 7.663172843488798e-10  0.
-1.4019310649520998e-11 7.500067060016196e-10  0.
-2.96446831128491e-11 7.120496160425636e-10  0.
-5.335518753973054e-11 6.396453017956064e-10  0.
-8.659183825210379e-11 5.293080288375606e-10  0.
-2.938747280899905e-10 5.567961010017951e-10  0.
0.0 9.330747745444426e-09  0.
5.319057140628315e-22 9.33074774544261e-09  0.
-5.889059961529236e-23 9.330747745441394e-09  0.
-5.856788425826344e-25 9.330747745441314e-09  0.
3.9702659106872586e-25 9.33074774544131e-09  0.
-1.7203078297215185e-25 9.330747745441311e-09  0.
-1.6199025540138124e-25 9.330747745441311e-09  0.
-9.063447315844617e-22 9.33074774544068e-09  0.
-9.453975316245844e-20 9.330747745410766e-09  0.
-3.504180237702058e-18 9.330747744175344e-09  0.
-1.0826460570367724e-16 9.330747701855255e-09  0.
-2.6934343501294435e-15 9.330746518340086e-09  0.
-5.207915420816862e-14 9.330720348733777e-09  0.
-7.44348675955182e-13 9.330282541152759e-09  0.
-7.305526265587817e-12 9.325108510861607e-09  0.
-4.3460454608394134e-11 9.286075542052567e-09  0.
-1.371256890106818e-10 9.140816564598691e-09  0.
-3.410174272494324e-10 8.744545735639393e-09  0.
-6.430412373546199e-10 7.923897710534209e-09  0.
-1.1191782581614064e-09 6.62192390765425e-09  0.
-3.7309273517344245e-09 7.040342053700115e-09  0.
0.0 8.223624118943647e-08  0.
-4.869101241830081e-22 8.223624118943513e-08  0.
1.2745495202305704e-22 8.223624118943533e-08  0.
2.4253646270344984e-24 8.223624118943528e-08  0.
-6.633916415295015e-24 8.22362411894353e-08  0.
1.8091970498765584e-25 8.223624118943529e-08  0.
4.779530233417144e-25 8.223624118943529e-08  0.
-1.9380597414748473e-21 8.223624118943468e-08  0.
-1.6826110996161262e-19 8.22362411893907e-08  0.
-6.557592628855758e-18 8.223624118750134e-08  0.
-2.1665029411228114e-16 8.223624111835168e-08  0.
-5.858134872066678e-15 8.223623902801132e-08  0.
-1.2612026388066592e-13 8.223618797408921e-08  0.
-2.0847334287286044e-12 8.223521102979473e-08  0.
-2.509151852471363e-11 8.222125425117151e-08  0.
-2.0391513758853852e-10 8.208200620816959e-08  0.
-9.90730494594227e-10 8.121306616878707e-08  0.
-2.7184871873460984e-09 7.838141171626583e-08  0.
-5.892549457254698e-09 7.168163127429757e-08  0.
-1.0687442814341395e-08 6.060386990435461e-08  0.
-3.510534491872252e-08 6.54723987962996e-08  0.
0.0 5.007210475893663e-07  0.
4.365400052199325e-22 5.007210475893758e-07  0.
-3.2940185475734385e-22 5.007210475893776e-07  0.
-6.486247530012631e-23 5.00721047589378e-07  0.
1.964458474508547e-23 5.007210475893778e-07  0.
-3.243896281376023e-23 5.007210475893778e-07  0.
-3.055362947071015e-23 5.007210475893778e-07  0.
-3.2819480309619607e-21 5.007210475893769e-07  0.
-2.6439715588833174e-19 5.007210475893216e-07  0.
-1.0831600492102876e-17 5.007210475868388e-07  0.
-3.761274497329652e-16 5.007210474920684e-07  0.
-1.0816773884997789e-14 5.007210444590135e-07  0.
-2.5179701554326517e-13 5.007209647457158e-07  0.
-4.607672877698944e-12 5.007192904727096e-07  0.
-6.372953871581322e-11 5.006920474019503e-07  0.
-6.292599439954908e-10 5.003669152254977e-07  0.
-4.098678892232103e-09 4.977008265824806e-07  0.
-1.572349321085154e-08 4.844516357090253e-07  0.
-3.710370414151611e-08 4.480160510804026e-07  0.
-7.549815609324742e-08 3.8414438038506044e-07  0.
-2.298979913525566e-07 4.2268932223076556e-07  0.
0.0 1.9628187687449413e-06  0.
-5.2095860363683e-22 1.9628187687449324e-06  0.
3.0058871008511426e-22 1.9628187687449333e-06  0.
8.070713098762664e-22 1.962818768744937e-06  0.
-1.2839925201500176e-23 1.9628187687449375e-06  0.
1.4663452525039122e-23 1.962818768744937e-06  0.
-7.180600556411751e-22 1.962818768744936e-06  0.
-4.6077201693203816e-21 1.962818768744936e-06  0.
-3.7754015065801547e-19 1.9628187687448765e-06  0.
-1.5881226093478545e-17 1.962818768742177e-06  0.
-5.722963878044695e-16 1.962818768635041e-06  0.
-1.7207690532645427e-14 1.9628187650591986e-06  0.
-4.2344025475318004e-13 1.962818666165501e-06  0.
-8.321440241430072e-12 1.9628164430246124e-06  0.
-1.264683146359187e-10 1.9627770421537865e-06  0.
-1.423127863904913e-09 1.9622434923861266e-06  0.
-1.1135898999304845e-08 1.9570711724291915e-06  0.
-5.569000876632058e-08 1.923590386566146e-06  0.
-1.6440733695632481e-07 1.8006985911693848e-06  0.
-3.6533590504629393e-07 1.5747667144492223e-06  0.
-9.984078050417287e-07 1.7713353685224167e-06  0.
0.0 4.651915251122806e-06  0.
8.907756325277524e-22 4.65191525112281e-06  0.
-6.928352942712788e-22 4.651915251122807e-06  0.
1.0067877064247726e-21 4.6519152511228035e-06  0.
1.3871704905192153e-23 4.6519152511228035e-06  0.
3.342297493857764e-23 4.6519152511228035e-06  0.
-8.086557555694947e-22 4.651915251122804e-06  0.
-6.659677348568357e-21 4.6519152511228035e-06  0.
-4.842957904744559e-19 4.651915251122753e-06  0.
-2.0783833684900957e-17 4.651915251120412e-06  0.
-7.678640213544323e-16 4.651915251025632e-06  0.
-2.3794257108414024e-14 4.6519152477709374e-06  0.
-6.077464081672102e-13 4.651915154431611e-06  0.
-1.2521799863778001e-11 4.6519129630250705e-06  0.
-2.0247064974721487e-10 4.651871652091262e-06  0.
-2.4786528817081006e-09 4.651268036404966e-06  0.
-2.186814535824159e-08 4.644648910074423e-06  0.
-1.2985535256742112e-07 4.594731421909689e-06  0.
-4.791289625138471e-07 4.365619753128281e-06  0.
-1.1647162621369057e-06 3.953444011475403e-06  0.
-2.6416288876569182e-06 4.477100477687279e-06  0.
0.0 7.125968867988441e-06  0.
2.1916338398626045e-21 7.125968867988442e-06  0.
-1.2628219291927793e-21 7.12596886798844e-06  0.
9.698729214704576e-23 7.125968867988441e-06  0.
-6.496390726949486e-24 7.125968867988441e-06  0.
-2.300486598602111e-23 7.125968867988441e-06  0.
-8.439934092410927e-23 7.125968867988441e-06  0.
-8.821005923830634e-21 7.125968867988442e-06  0.
-5.590280358139823e-19 7.125968867988414e-06  0.
-2.437635526529018e-17 7.125968867987055e-06  0.
-9.13641734235718e-16 7.125968867931159e-06  0.
-2.88100824964416e-14 7.125968865978609e-06  0.
-7.518697981436189e-13 7.1259688088586885e-06  0.
-1.591692985123323e-11 7.125967430168242e-06  0.
-2.666774339864848e-10 7.125940600695504e-06  0.
-3.4260419499927193e-09 7.125527663507043e-06  0.
-3.2424503390787284e-08 7.120717926986806e-06  0.
-2.140454173762005e-07 7.0802335745883555e-06  0.
-9.202378244479026e-07 6.873634989405865e-06  0.
-2.389966785736401e-06 6.519790254654361e-06  0.
-3.904162196000597e-06 7.1089426401739496e-06  0.
0.0 9.450000000000006e-06  0.
-2.04231238830052e-21 9.450000000000006e-06  0.
3.3016950518143237e-22 9.450000000000006e-06  0.
-9.629943901125106e-23 9.450000000000006e-06  0.
0.0 9.450000000000006e-06  0.
0.0 9.450000000000006e-06  0.
1.5777631302289806e-23 9.450000000000006e-06  0.
-9.725818208684379e-21 9.450000000000006e-06  0.
-5.851819388348714e-19 9.450000000000006e-06  0.
-2.569732799884148e-17 9.450000000000006e-06  0.
-9.677430438374662e-16 9.450000000000006e-06  0.
-3.069201575456637e-14 9.450000000000006e-06  0.
-8.066256692730608e-13 9.450000000000006e-06  0.
-1.722960087264169e-11 9.450000000000006e-06  0.
-2.9200882034142704e-10 9.450000000000006e-06  0.
-3.812875302275359e-09 9.450000000000006e-06  0.
-3.692664567340835e-08 9.450000000000006e-06  0.
-2.5319761049449395e-07 9.450000000000006e-06  0.
-1.1478486098723396e-06 9.450000000000006e-06  0.
-3.051358888638571e-06 9.450000000000006e-06  0.
-4.130348304781809e-06 9.450000000000006e-06  0.
</DataArray>
<DataArray type="Float64" Name="sigma_xx" NumberOfComponents="1" format="ascii" >
0.0 
0.0 
0.0 
0.0 
0.0 
0.0 
0.0 
0.0 
0.0 
0.0 
0.0 
0.0 
0.0 
0.0 
0.0 
0.0 
0.0 
0.0 
0.0 
0.0 
0.0 
0.0 
0.0 
0.0 
0.0 
0.0 
0.0 
0.0 
0.0 
0.0 
0.0 
0.0 
0.0 
0.0 
0.0 
0.0 
0.0 
0.0 
0.0 
0.0 
0.0 
0.0 
0.0 
0.0 
0.0 
0.0 
0.0 
0.0 
0.0 
0.0 
0.0 
0.0 
0.0 
0.0 
0.0 
0.0 
0.0 
0.0 
0.0 
0.0 
0.0 
0.0 
0.0 
0.0 
0.0 
0.0 
0.0 
0.0 
0.0 
0.0 
0.0 
0.0 
0.0 
0.0 
0.0 
0.0 
0.0 
0.0 
0.0 
0.0 
0.0 
0.0 
0.0 
0.0 
0.0 
0.0 
0.0 
0.0 
0.0 
0.0 
0.0 
0.0 
0.0 
0.0 
0.0 
0.0 
0.0 
0.0 
0.0 
0.0 
0.0 
0.0 
0.0 
0.0 
0.0 
0.0 
0.0 
0.0 
0.0 
0.0 
0.0 
0.0 
0.0 
0.0 
0.0 
0.0 
0.0 
0.0 
0.0 
0.0 
0.0 
0.0 
0.0 
0.0 
0.0 
0.0 
5.595524044110787e-06 
5.595524044110787e-06 
5.595524044110787e-06 
5.595524044110787e-06 
5.595524044110787e-06 
5.595524044110787e-06 
5.595524044110787e-06 
5.595524044110787e-06 
5.595524044110787e-06 
5.595524044110787e-06 
5.595524044110787e-06 
5.595524044110787e-06 
5.595524044110787e-06 
5.595524044110787e-06 
5.523359547510152e-06 
5.36792832406263e-06 
5.1292303737682215e-06 
4.596323321948146e-06 
3.9801495432811845e-06 
3.0753177782116823e-06 
2.409183963436589e-06 
0.00024900081996293 
0.00024900081996293 
0.00024900081996293 
0.00024900081996293 
0.00024900081996293 
0.00024900081996293 
0.00024900081996293 
0.00024900081996293 
0.00024892310435120624 
0.0002487676731277587 
0.0002486177930194343 
0.0002484679129111099 
0.0002478572902475661 
0.0002460309733720577 
0.00024206192605902277 
0.00023482882305358988 
0.00022254420528611255 
0.00020297097336197106 
0.0001747713085364921 
0.00012664869153411468 
9.487965968446582e-05 
0.008987344202182609 
0.008987344202182609 
0.008987344202182609 
0.008987344202182609 
0.008987344202182609 
0.008987344202182609 
0.008987344202182609 
0.008987344202182609 
0.008987266486570885 
0.008986739130634188 
0.008985018284946019 
0.008978862098274473 
0.008959277764120085 
0.008906747561709945 
0.008787420791023234 
0.008549772001487096 
0.008126505024463878 
0.007443923255578962 
0.006433020782736774 
0.00466800487153307 
0.003498423772896329 
0.271790612238476 
0.271790612238476 
0.271790612238476 
0.271790612238476 
0.271790612238476 
0.271790612238476 
0.271790612238476 
0.271790612238476 
0.2717905400739794 
0.27178810313444035 
0.27176601524736543 
0.2716567637506272 
0.27124169577064083 
0.27002431401967886 
0.2670110355040832 
0.2606282134554049 
0.24869783454839467 
0.2288091216495757 
0.1985387410030625 
0.14433586548179272 
0.10818365092646326 
6.775054761654074 
6.775054761654074 
6.775054761654074 
6.775054761654074 
6.775054761654074 
6.775054761654074 
6.775054761654074 
6.775054761654074 
6.775054173235871 
6.775043248641309 
6.774890548566502 
6.773497240875058 
6.767148391650933 
6.744888253473745 
6.684447162452754 
6.545574915417516 
6.272344543756246 
5.797434149412693 
5.05225504765505 
3.679234145126385 
2.754118932912773 
136.33384428057832 
136.3338442028627 
136.3338441251471 
136.3338441251471 
136.3338441251471 
136.3338441251471 
136.3338441251471 
136.3338441251471 
136.33384244871033 
136.33380281374835 
136.33309115523844 
136.3240732521475 
136.2524840176071 
135.9570054926262 
135.0088002616267 
132.64581245620016 
127.64637234985437 
118.56906717844224 
103.79492332290849 
75.68088545573113 
56.61611031104738 
2157.8612030559434 
2157.8612029782275 
2157.861202900512 
2157.861202900512 
2157.861202900512 
2157.861202900512 
2157.861202900512 
2157.861202828348 
2157.8611986206024 
2157.8610802208677 
2157.858584078686 
2157.819385351089 
2157.392294105386 
2154.4924594218965 
2143.771548532291 
2112.6700043672113 
2042.2629809779817 
1906.327854153677 
1676.561152730293 
1223.0189328360505 
910.8251173672862 
25989.69433245112 
25989.69433245112 
25989.69433245112 
25989.69433245112 
25989.69433245112 
25989.69433245112 
25989.69433245112 
25989.694332156912 
25989.694322076088 
25989.69402539119 
25989.687003868938 
25989.55878186925 
25987.83938939641 
25972.05661474255 
25882.434279164692 
25589.995512695354 
24835.69049080424 
23302.723832507858 
20577.666346199836 
14991.206397238495 
11134.140997731685 
228111.91919946953 
228111.91919946953 
228111.91919946953 
228111.91919946953 
228111.91919946953 
228111.91919946953 
228111.91919946953 
228111.91919903655 
228111.91917891373 
228111.9185411572 
228111.90208146806 
228111.5664871768 
228106.36016788444 
228048.06389165868 
227609.41004568705 
225586.53732576143 
219877.77305791923 
207065.286208205 
183434.1758237434 
132967.77277513876 
97391.12894556751 
1376398.0848465525 
1376398.0848465525 
1376398.0848465525 
1376398.0848465525 
1376398.0848465525 
1376398.0848465525 
1376398.0848465525 
1376398.084845764 
1376398.0848102816 
1376398.0836154153 
1376398.0506791614 
1376397.3215517418 
1376384.7558852928 
1376223.013965488 
1374755.3687483228 
1366040.934872739 
1334683.9193857312 
1260205.039327491 
1114360.9142113482 
797355.5340210628 
575675.7521125751 
5272107.0831376985 
5272107.083137621 
5272107.083137543 
5272107.083137543 
5272107.083137543 
5272107.083137543 
5272107.083137543 
5272107.083136172 
5272107.083079856 
5272107.081107361 
5272107.023962367 
5272105.679263243 
5272080.65449563 
5271725.124093789 
5268047.651980258 
5242125.652816341 
5127313.148972644 
4821436.549656084 
4209472.911752256 
2906802.9063485367 
2002456.1212194916 
11649576.884879528 
11649576.88487945 
11649576.884879371 
11649576.884879371 
11649576.884879371 
11649576.884879371 
11649576.884879371 
11649576.884877495 
11649576.884797325 
11649576.88190665 
11649576.79507282 
11649574.659481945 
11649532.678267714 
11648893.218044072 
11641653.624592625 
11584136.88268251 
11288372.666535437 
10389404.891508037 
8657191.834588012 
5377246.67755755 
3175434.339529285 
14494206.38521592 
14494206.38521592 
14494206.38521592 
14494206.38521592 
14494206.38521592 
14494206.38521592 
14494206.38521592 
14494206.38521339 
14494206.385110391 
14494206.381329045 
14494206.26488812 
14494203.314062279 
14494143.127273567 
14493182.727663971 
14481635.916943058 
14382307.612189516 
13814975.201204669 
11880977.960366905 
8294449.06050105 
3680942.0373716233 
1198614.5393358106 
13466899.070460876 
13466899.070460876 
13466899.070460876 
13466899.070460876 
13466899.070460876 
13466899.070460876 
13466899.070460876 
13466899.070458062 
13466899.070338674 
13466899.065903572 
13466898.927342325 
13466895.354337227 
13466820.90302357 
13465600.630668452 
13450410.62324588 
13313554.177563515 
12480567.787097737 
9409771.462656949 
3776168.6672241385 
353656.0221824057 
204120.5405348395 
13044820.61519891 
13044820.61519891 
13044820.61519891 
13044820.61519891 
13044820.61519891 
13044820.61519891 
13044820.61519891 
13044820.61519618 
13044820.615070902 
13044820.610394686 
13044820.463613532 
13044816.656903043 
13044736.780390183 
13043415.969318312 
13026787.766323421 
12874631.741681831 
11928746.584220096 
8342821.9728724845 
1758730.6161694098 
-357228.3076542639 
1334092.250650541 
</DataArray>
<DataArray type="Float64" Name="sigma_yy" NumberOfComponents="1" format="ascii" >
0.0 
0.0 
0.0 
0.0 
0.0 
0.0 
0.0 
0.0 
0.0 
0.0 
0.0 
0.0 
0.0 
0.0 
0.0 
0.0 
0.0 
0.0 
0.0 
0.0 
0.0 
0.0 
0.0 
0.0 
0.0 
0.0 
0.0 
0.0 
0.0 
0.0 
0.0 
0.0 
0.0 
0.0 
0.0 
0.0 
0.0 
0.0 
0.0 
0.0 
0.0 
0.0 
0.0 
0.0 
0.0 
0.0 
0.0 
0.0 
0.0 
0.0 
0.0 
0.0 
0.0 
0.0 
0.0 
0.0 
0.0 
0.0 
0.0 
0.0 
0.0 
0.0 
0.0 
0.0 
0.0 
0.0 
0.0 
0.0 
0.0 
0.0 
0.0 
0.0 
0.0 
0.0 
0.0 
0.0 
0.0 
0.0 
0.0 
0.0 
0.0 
0.0 
0.0 
0.0 
0.0 
0.0 
0.0 
0.0 
0.0 
0.0 
0.0 
0.0 
0.0 
0.0 
0.0 
0.0 
0.0 
0.0 
0.0 
0.0 
0.0 
0.0 
0.0 
0.0 
0.0 
0.0 
0.0 
0.0 
0.0 
0.0 
0.0 
0.0 
0.0 
0.0 
0.0 
0.0 
0.0 
0.0 
0.0 
0.0 
0.0 
0.0 
0.0 
0.0 
0.0 
0.0 
1.0391687510491464e-05 
1.0391687510491464e-05 
1.0391687510491464e-05 
1.0391687510491464e-05 
1.0391687510491464e-05 
1.0391687510491464e-05 
1.0391687510491464e-05 
1.0391687510491464e-05 
1.0391687510491464e-05 
1.0391687510491464e-05 
1.0391687510491464e-05 
1.0391687510491464e-05 
1.0391687510491464e-05 
1.0391687510491464e-05 
1.0352829704629583e-05 
1.0064171718227042e-05 
9.525713551283841e-06 
8.726352973553729e-06 
7.677192215282956e-06 