<?xml version="1.0"?>
<VTKFile type="UnstructuredGrid" version="0.1" byte_order="LittleEndian" compressor="vtkZLibDataCompressor">
<UnstructuredGrid>
<Piece NumberOfPoints="441" NumberOfCells="400">
<PointData>
<DataArray type="Float64" Name="displacement" NumberOfComponents="3" format="ascii" >
0.0 9.475935058975434e-09  0.
-9.103157208492479e-15 9.475928761211984e-09  0.
-3.3348574821511286e-14 9.475899201686794e-09  0.
-1.0542023610039799e-13 9.47580178564925e-09  0.
-3.049545411562075e-13 9.475511484373463e-09  0.
-8.135550070365965e-13 9.474714799837795e-09  0.
-2.010503712559529e-12 9.472691048200932e-09  0.
-4.6205012822003514e-12 9.467913704420678e-09  0.
-9.910295635351217e-12 9.457395616388182e-09  0.
-1.9902015139734112e-11 9.435727145769005e-09  0.
-3.753024251496167e-11 9.393833771199124e-09  0.
-6.663006433477382e-11 9.317618025691082e-09  0.
-1.1162824501352569e-10 9.186831199349977e-09  0.
-1.7684443538846122e-10 8.974687501171083e-09  0.
-2.654098362605335e-10 8.64880084863533e-09  0.
-3.779661617593214e-10 8.173904176738338e-09  0.
-5.114943744286725e-10 7.516480441524093e-09  0.
-6.589545282723659e-10 6.651250030248892e-09  0.
-8.120657378421864e-10 5.5765069286816656e-09  0.
-1.0104712197006392e-09 4.4162161383684715e-09  0.
-1.92883556209794e-09 4.530180291005429e-09  0.
0.0 2.2782069607458844e-08  0.
-1.8368710060948688e-14 2.2782058613317473e-08  0.
-6.915419367503729e-14 2.2782005437955017e-08  0.
-2.2489082193692226e-13 2.2781823485368972e-08  0.
-6.678154541601251e-13 2.2781261718528164e-08  0.
-1.824272941583788e-12 2.2779670211385586e-08  0.
-4.6048805832796906e-12 2.277551149399876e-08  0.
-1.078449208965028e-11 2.2765445717511143e-08  0.
-2.352051402328869e-11 2.2742791177018726e-08  0.
-4.7932694688020464e-11 2.2695211431604636e-08  0.
-9.155626923547684e-11 2.2601661260457986e-08  0.
-1.6436888219465063e-10 2.2428963883180766e-08  0.
-2.780405626395695e-10 2.2128852027864818e-08  0.
-4.441426791288155e-10 2.1636746787972343e-08  0.
-6.713121057736647e-10 2.0873751517256408e-08  0.
-9.617884146199623e-10 1.975307693001314e-08  0.
-1.3082945912402153e-09 1.819136849514066e-08  0.
-1.6940379006344509e-09 1.612577998819038e-08  0.
-2.1159026884309946e-09 1.3556794808255882e-08  0.
-2.8204451388782215e-09 1.0881868089455109e-08  0.
-6.340181661640081e-09 1.1720888974713136e-08  0.
0.0 8.825588089856655e-08  0.
-6.292897167408304e-14 8.82558469717137e-08  0.
-2.4401096359589823e-13 8.82556790026512e-08  0.
-8.176940775378423e-13 8.825508745663091e-08  0.
-2.495111199663206e-12 8.825321130051682e-08  0.
-6.982202652566791e-12 8.824776758070943e-08  0.
-1.8001335358318952e-11 8.823324235284632e-08  0.
-4.294117072181596e-11 8.81974436322211e-08  0.
-9.515145008587154e-11 8.811561393511987e-08  0.
-1.965636103125329e-10 8.794147588344914e-08  0.
-3.7981596057681965e-10 8.759528412896469e-08  0.
-6.885389424690707e-10 8.695030494747585e-08  0.
-1.1742183757309913e-09 8.582097494262723e-08  0.
-1.888415788800852e-09 8.395775119795679e-08  0.
-2.870317225258728e-09 8.105445729297601e-08  0.
-4.131436178433634e-09 7.677290603854736e-08  0.
-5.641863259029236e-09 7.078691693344496e-08  0.
-7.3311279160560396e-09 6.285169221609648e-08  0.
-9.197088057489979e-09 5.300064432860447e-08  0.
-1.235303212502959e-08 4.2920843446431935e-08  0.
-2.7486372093285434e-08 4.722933988129353e-08  0.
0.0 3.0580867421241407e-07  0.
-1.956869767778379e-13 3.0580857530846306e-07  0.
-7.794988058497587e-13 3.0580807467157337e-07  0.
-2.683421037737684e-12 3.058062637374382e-07  0.
-8.386861278079475e-12 3.058003784181027e-07  0.
-2.3961296748436762e-11 3.057829397546532e-07  0.
-6.287521421356093e-11 3.0573558144352323e-07  0.
-1.522122654995732e-10 3.056171605533519e-07  0.
-3.4138721028197644e-10 3.0534331472446724e-07  0.
-7.121398265912537e-10 3.04755286766661e-07  0.
-1.3866268056503593e-09 3.03578399157988e-07  0.
-2.5284512127676215e-09 3.0137539090333197e-07  0.
-4.330629750883164e-09 2.9750623735627845e-07  0.
-6.986114074070573e-09 2.911119005626701e-07  0.
-1.0641133785872313e-08 2.8114158265182357e-07  0.
-1.53388427774812e-08 2.6643879193050143e-07  0.
-2.0970955754312497e-08 2.4589351094836965e-07  0.
-2.7296112667419602e-08 2.186965625122201e-07  0.
-3.44317293133285e-08 1.8516329685313022e-07  0.
-4.6930437732653073e-08 1.5222572594992324e-07  0.
-1.001696996086973e-07 1.7040593013857224e-07  0.
0.0 9.019633432330725e-07  0.
-5.590406977212247e-13 9.019630783604624e-07  0.
-2.2830602454106876e-12 9.019617099483192e-07  0.
-8.053733051329057e-12 9.01956639338329e-07  0.
-2.5710327724274077e-11 9.019398061934709e-07  0.
-7.476079319542392e-11 9.018890497447586e-07  0.
-1.9897117815509717e-10 9.017493201442115e-07  0.
-4.869609846580973e-10 9.013964257934265e-07  0.
-1.1008634358964867e-09 9.005749876770838e-07  0.
-2.3085488712692863e-09 8.988049284548423e-07  0.
-4.50828578894507e-09 8.952595044112163e-07  0.
-8.228620342681908e-09 8.88633083845962e-07  0.
-1.4084594157396191e-08 8.770354295730845e-07  0.
-2.267865380278259e-08 8.579635923190459e-07  0.
-3.445105343283807e-08 8.284034235876219e-07  0.
-4.950849353597201e-08 7.850949971953073e-07  0.
-6.749510091235035e-08 7.249792091479612e-07  0.
-8.77414732410288e-08 6.460062665895317e-07  0.
-1.1122433757816964e-07 5.501892890039366e-07  0.
-1.5389505158114419e-07 4.622104047142627e-07  0.
-3.1249695543355396e-07 5.282004245743326e-07  0.
0.0 2.2238829424253547e-06  0.
-1.472669769274206e-12 2.2238822912985743e-06  0.
-6.153113768698926e-12 2.223878863861536e-06  0.
-2.21864164255748e-11 2.2238658871519654e-06  0.
-7.213880375196983e-11 2.2238220134324627e-06  0.
-2.1280987779726396e-10 2.2236878619489046e-06  0.
-5.723415190685825e-10 2.2233150178931676e-06  0.
-1.4101754310634977e-09 2.222368504660808e-06  0.
-3.1982712417078816e-09 2.220162999685225e-06  0.
-6.7074222440264415e-09 2.2154237702199927e-06  0.
-1.30635302440801e-08 2.205990396326329e-06  0.
-2.372372902578549e-08 2.1885231734472664e-06  0.
-4.0325606201184195e-08 2.158314376930344e-06  0.
-6.439112924991514e-08 2.109326933401057e-06  0.
-9.692284405321248e-08 2.034557715361256e-06  0.
-1.3799168187702757e-07 1.9267568438941946e-06  0.
-1.8653076296960507e-07 1.779527219338201e-06  0.
-2.411637877844756e-07 1.5895756959329206e-06  0.
-3.069514575829798e-07 1.3665731977608904e-06  0.
-4.3131473989650523e-07 1.1856255106187217e-06  0.
-8.24726958074517e-07 1.3886967341691986e-06  0.
0.0 4.5060598235843456e-06  0.
-3.581650721757727e-12 4.5060583555740424e-06  0.
-1.5278331603144648e-11 4.506050495680496e-06  0.
-5.617058128501739e-11 4.506020164006197e-06  0.
-1.8550959135334074e-10 4.505916020285705e-06  0.
-5.534336444152914e-10 4.505594193239315e-06  0.
-1.4985265345856807e-09 4.5046948606416925e-06  0.
-3.7010487116934484e-09 4.5024111399310986e-06  0.
-8.379551943135246e-09 4.4971150340039385e-06  0.
-1.7477073039080173e-08 4.485843126786306e-06  0.
-3.373648125577336e-08 4.4637210536309245e-06  0.
-6.054277532940548e-08 4.423501813632249e-06  0.
-1.0144601949181758e-07 4.355462509498829e-06  0.
-1.5938845775058413e-07 4.2478815501425495e-06  0.
-2.3580580744881912e-07 4.088177462743289e-06  0.
-3.2992825826808405e-07 3.864590562572771e-06  0.
-4.389021848253004e-07 3.5684651880357373e-06  0.
-5.613136544561214e-07 3.1999574026060704e-06  0.
-7.167991015290353e-07 2.7955254258293596e-06  0.
-1.0220416406403247e-06 2.5462722866219358e-06  0.
-1.8178530891824394e-06 3.0651662775791256e-06  0.
0.0 7.432928950481206e-06  0.
-8.054354360015765e-12 7.432925913519278e-06  0.
-3.5004361045660524e-11 7.432909402203877e-06  0.
-1.3090755006301838e-10 7.432844608318361e-06  0.
-4.3798753218862903e-10 7.432619281265201e-06  0.
-1.3173990796101728e-09 7.431917784516252e-06  0.
-3.5783440863246485e-09 7.42995446153737e-06  0.
-8.821196022818576e-09 7.4249914750730335e-06  0.
-1.983855199461264e-08 7.413603478850666e-06  0.
-4.0914738939305006e-08 7.389764261977138e-06  0.
-7.777339738730972e-08 7.344011662046516e-06  0.
-1.369337047047435e-07 7.2631197272801986e-06  0.
-2.2440269799168215e-07 7.130741142501714e-06  0.
-3.439621986227997e-07 6.929257956323702e-06  0.
-4.956228990589433e-07 6.642622094665034e-06  0.
-6.751152561149617e-07 6.2596078322306934e-06  0.
-8.76056246588737e-07 5.778004858985844e-06  0.
-1.10162383551747e-06 5.218616781030994e-06  0.
-1.4110694815853276e-06 4.690329617230839e-06  0.
-2.0332569599489872e-06 4.587236768342893e-06  0.
-3.319917722525281e-06 5.6581827983504395e-06  0.
0.0 1.0150195536620752e-05  0.
-1.6814348584162336e-11 1.0150189739824368e-05  0.
-7.43037597499072e-11 1.0150157788385727e-05  0.
-2.820394009086922e-10 1.0150030558814486e-05  0.
-9.537045849592268e-10 1.014958347999127e-05  0.
-2.884165260841285e-09 1.014818518763674e-05  0.
-7.832197926500298e-09 1.0144279636437388e-05  0.
-1.919275993180225e-08 1.0134496272808328e-05  0.
-4.266751816968958e-08 1.0112410217110398e-05  0.
-8.652492636317787e-08 1.0067249747414715e-05  0.
-1.609324795263471e-07 9.983188525453745e-06  0.
-2.7603142866999296e-07 9.840048266432249e-06  0.
-4.389981220737903e-07 9.615976901652303e-06  0.
-6.510008291087913e-07 9.291937022627575e-06  0.
-9.055813485648053e-07 8.856865819438619e-06  0.
-1.1900663557262476e-06 8.312449967161895e-06  0.
-1.4941178593124428e-06 7.680761136742852e-06  0.
-1.839764624570722e-06 7.037922326855037e-06  0.
-2.3663028234070293e-06 6.639721336195917e-06  0.
-3.409209401219093e-06 7.109853088582332e-06  0.
-5.060649123528607e-06 8.83291589890397e-06  0.
0.0 1.2261686170535908e-05  0.
-3.277964581586667e-11 1.2261675878907004e-05  0.
-1.4703063191727965e-10 1.226161845169385e-05  0.
-5.653815799993414e-10 1.2261386840503676e-05  0.
-1.9283503243782302e-09 1.2260566064256032e-05  0.
-5.849626956571751e-09 1.2257993039723178e-05  0.
-1.5834878158976242e-08 1.2250842506643872e-05  0.
-3.843007443642752e-08 1.2233164312270292e-05  0.
-8.407282375037057e-08 1.2194106584296172e-05  0.
-1.6675539344169614e-07 1.2116609275951621e-05  0.
-3.016728877357934e-07 1.1977813261618758e-05  0.
-5.007942741045325e-07 1.175228877316231e-05  0.
-7.676568446230905e-07 1.1418125846110974e-05  0.
-1.0937646220582649e-06 1.0964204017840935e-05  0.
-1.4591250665325906e-06 1.0396140845962741e-05  0.
-1.8396572227635148e-06 9.740676224353285e-06  0.
-2.2288036857468055e-06 9.061348480961554e-06  0.
-2.697500637371608e-06 8.53201997449171e-06  0.
-3.496314344062595e-06 8.614981063772327e-06  0.
-4.939873080453371e-06 9.974454674570824e-06  0.
-6.681836023980755e-06 1.204238004810986e-05  0.
0.0 1.4437251615835452e-05  0.
-5.991792084049606e-11 1.4437234586819538e-05  0.
-2.7237058396258154e-10 1.4437138511796607e-05  0.
-1.05935825277426e-09 1.4436746647608756e-05  0.
-3.6386716084121298e-09 1.4435348306423591e-05  0.
-1.1051909139343418e-08 1.4430962109980671e-05  0.
-2.9752944852759552e-08 1.4418862627583725e-05  0.
-7.12921383557571e-08 1.4389440780291987e-05  0.
-1.5288137000279438e-07 1.4326124902060353e-05  0.
-2.9522453127934987e-07 1.4204962397988686e-05  0.
-5.168037187275151e-07 1.3997716459964703e-05  0.
-8.259331067764022e-07 1.3679081995987139e-05  0.
-1.2141613734153552e-06 1.3236054996708867e-05  0.
-1.65561216847003e-06 1.26750487383231e-05  0.
-2.1143628627811187e-06 1.2023699868245953e-05  0.
-2.563700322279809e-06 1.133345267088438e-05  0.
-3.0272996608767022e-06 1.0715778579535089e-05  0.
-3.665993094765886e-06 1.0473603028985387e-05  0.
-4.8065124643554345e-06 1.1222866441925287e-05  0.
-6.5044618484248216e-06 1.3206072618156729e-05  0.
-8.163981986982699e-06 1.4982223559544652e-05  0.
0.0 1.7059671988676056e-05  0.
-1.0278217305369872e-10 1.705964583885765e-05  0.
-4.728042051049817e-10 1.7059496841533207e-05  0.
-1.8573373294656951e-09 1.7058883070879714e-05  0.
-6.416117461038482e-09 1.705668035114318e-05  0.
-1.9485313110723008e-08 1.7049776044589463e-05  0.
-5.2073474343644044e-08 1.7030905118205345e-05  0.
-1.2288239813511882e-07 1.6985901071523458e-05  0.
-2.5745981184426747e-07 1.6891972459978156e-05  0.
-4.82194821836945e-07 1.6719608199537744e-05  0.
-8.135362193421229e-07 1.643994069214125e-05  0.
-1.2472975398265383e-06 1.6035886722590616e-05  0.
-1.7549999076805631e-06 1.551115428205588e-05  0.
-2.292312276755028e-06 1.4890962097850447e-05  0.
-2.8195959917945534e-06 1.421519206646737e-05  0.
-3.333821705187608e-06 1.3549155616128318e-05  0.
-3.932461985989672e-06 1.306571281535445e-05  0.
-4.877978941722718e-06 1.3212813994963972e-05  0.
-6.422987180089436e-06 1.4532147716818262e-05  0.
-8.194220435932216e-06 1.6427647064226565e-05  0.
-9.72795850088668e-06 1.7618022117202658e-05  0.
0.0 1.945164760391892e-05  0.
-1.6569713381032293e-10 1.9451610331527773e-05  0.
-7.702020375937675e-10 1.9451396111022754e-05  0.
-3.0516975318993015e-09 1.945050609143549e-05  0.
-1.058975918937533e-08 1.9447297460532895e-05  0.
-3.211899446671876e-08 1.9437258400100308e-05  0.
-8.50886330273125e-08 1.941010967027032e-05  0.
-1.9734322945782068e-07 1.93467610815549e-05  0.
-4.0286047040031334e-07 1.921902985163608e-05  0.
-7.295222426947687e-07 1.8995459957870958e-05  0.
-1.1830285867223299e-06 1.8653339808732438e-05  0.
-1.7379052671976605e-06 1.819069424384012e-05  0.
-2.3453362316615933e-06 1.762786924099188e-05  0.
-2.9563508189354177e-06 1.6995758480151633e-05  0.
-3.5552696380482913e-06 1.6328230068849995e-05  0.
-4.197941057360125e-06 1.5707865063640218e-05  0.
-5.074529691687109e-06 1.5420393334917844e-05  0.
-6.4714410027408e-06 1.6030665767974737e-05  0.
-8.336761603308264e-06 1.7670334420946117e-05  0.
-1.0007815515438346e-05 1.907177823741837e-05  0.
-1.138330956037914e-05 2.0165953816595456e-05  0.
0.0 2.1675383996254487e-05  0.
-2.517194928188922e-10 2.1675334608777337e-05  0.
-1.180700658239891e-09 2.167504862352187e-05  0.
-4.7126518609029084e-09 2.1673851778906188e-05  0.
-1.641156638216631e-08 2.166952174863975e-05  0.
-4.9673460380007e-08 2.165600876767771e-05  0.
-1.303335430804659e-07 2.1619881459864423e-05  0.
-2.9668754506024303e-07 2.1537529936604287e-05  0.
-5.88938609463858e-07 2.137761561966157e-05  0.
-1.0289110407318433e-06 2.1111891287010486e-05  0.
-1.6020212441486704e-06 2.0729968903601733e-05  0.
-2.25884512057122e-06 2.0245801292712345e-05  0.
-2.9438123800635005e-06 1.9685200043482398e-05  0.
-3.6315700597607694e-06 1.9065013229397217e-05  0.
-4.357221435406553e-06 1.8410989163422963e-05  0.
-5.25244371293153e-06 1.7870658778156524e-05  0.
-6.544215046256766e-06 1.7892875035257293e-05  0.
-8.371746620390084e-06 1.897269378786788e-05  0.
-1.0257975980922423e-05 2.0551356551983092e-05  0.
-1.1706744992530314e-05 2.1507395457364598e-05  0.
-1.305903257256858e-05 2.3008233301645774e-05  0.
0.0 2.419852345831482e-05  0.
-3.6073059248292007e-10 2.4198463008489456e-05  0.
-1.7052117091199929e-09 2.4198110684489238e-05  0.
-6.848663113352385e-09 2.419662697905165e-05  0.
-2.391650664795699e-08 2.4191243746161024e-05  0.
-7.220938561546686e-08 2.4174491247636973e-05  0.
-1.8760722072821677e-07 2.4130214065956707e-05  0.
-4.189893143664238e-07 2.4031658079160566e-05  0.
-8.080213224378127e-07 2.3847680135440342e-05  0.
-1.3608258797051017e-06 2.3558443700801097e-05  0.
-2.036791780397641e-06 2.316849665730455e-05  0.
-2.7720055911229735e-06 2.2700127661365623e-05  0.
-3.5296739848620927e-06 2.2167491909274568e-05  0.
-4.33610747584301e-06 2.156510974201215e-05  0.
-5.27783026735852e-06 2.094344809769179e-05  0.
-6.522357168562228e-06 2.0590804021016406e-05  0.
-8.2266890565961e-06 2.1049923955261247e-05  0.
-1.0205022760673495e-05 2.239961404245844e-05  0.
-1.184115859859195e-05 2.346876075710807e-05  0.
-1.3141421819554146e-05 2.4119633349706303e-05  0.
-1.4575009172723238e-05 2.566049452935402e-05  0.
0.0 2.6530005615104032e-05  0.
-4.881024648920432e-10 2.6529937672453585e-05  0.
-2.3223334867049622e-09 2.6529539527293596e-05  0.
-9.375263118747384e-09 2.6527854206347514e-05  0.
-3.280894307037927e-08 2.6521726077682095e-05  0.
-9.879587400003302e-08 2.6502710913297568e-05  0.
-2.542405398172036e-07 2.6453003503141207e-05  0.
-5.573254037406196e-07 2.6344896504636085e-05  0.
-1.044502313647708e-06 2.6150955795648135e-05  0.
-1.6969024153569003e-06 2.586297767864356e-05  0.
-2.450231696515439e-06 2.549794078743498e-05  0.
-3.249247151811403e-06 2.5073266482412433e-05  0.
-4.100799566645082e-06 2.457927487139513e-05  0.
-5.085764786264045e-06 2.4007323924300003e-05  0.
-6.305877306036131e-06 2.348536191727252e-05  0.
-7.866269979009918e-06 2.3440663568556798e-05  0.
-9.760478074963248e-06 2.4282345160833023e-05  0.
-1.1513597052469083e-05 2.5454466389208524e-05  0.
-1.290470051435026e-05 2.592270086583259e-05  0.
-1.4273896900045592e-05 2.6605063093474954e-05  0.
-1.5511319122599478e-05 2.7545395042521174e-05  0.
0.0 2.8895535198676823e-05  0.
-6.244199826238191e-10 2.8895465788397707e-05  0.
-2.9866007525747116e-09 2.8895057264443994e-05  0.
-1.2106827454619553e-08 2.889332090628596e-05  0.
-4.2434969986921586e-08 2.888699706730093e-05  0.
-1.2745881536766452e-07 2.8867429150764695e-05  0.
-3.251583384342019e-07 2.88167852998377e-05  0.
-7.00656054154973e-07 2.8708976495767723e-05  0.
-1.2783565656594874e-06 2.8522800180056664e-05  0.
-2.008232510094393e-06 2.8261484482687054e-05  0.
-2.813339640532211e-06 2.7948105608201445e-05  0.
-3.677787490548414e-06 2.7584150420145553e-05  0.
-4.659659179744757e-06 2.7137723817949477e-05  0.
-5.852911762045597e-06 2.663356012468633e-05  0.
-7.321911868898212e-06 2.629900513157967e-05  0.
-9.023185519515447e-06 2.6566447847410835e-05  0.
-1.0794295393609133e-05 2.747613056635714e-05  0.
-1.2258090052132345e-05 2.8092420765968713e-05  0.
-1.3590290379470266e-05 2.8318616601652114e-05  0.
-1.5056932355336478e-05 2.9191619972528656e-05  0.
-1.6161063707163077e-05 2.955139686323367e-05  0.
0.0 3.132513944128002e-05  0.
-7.556342402916765e-10 3.132507659171364e-05  0.
-3.6289269136853344e-09 3.1324705406693954e-05  0.
-1.4757323450228265e-08 3.132312263857849e-05  0.
-5.178383297646347e-08 3.131735092792792e-05  0.
-1.551976680694329e-07 3.1299532178333526e-05  0.
-3.930254073847712e-07 3.125379519521125e-05  0.
-8.345678607979031e-07 3.1158189134974354e-05  0.
-1.4875165130714858e-06 3.0998554008918063e-05  0.
-2.269748278613189e-06 3.078572908149367e-05  0.
-3.107102298151783e-06 3.054170929029001e-05  0.
-4.048778975177588e-06 3.025044524993652e-05  0.
-5.186949821217989e-06 2.987193527436045e-05  0.
-6.553237404895102e-06 2.9483137954939832e-05  0.
-8.14721995256675e-06 2.9362688506329594e-05  0.
-9.811043052062862e-06 2.976992999064928e-05  0.
-1.1358528813711721e-05 3.040893627532467e-05  0.
-1.2818249691353217e-05 3.061770327527311e-05  0.
-1.4192924189992204e-05 3.0918959748121096e-05  0.
-1.5562300092669137e-05 3.153164992490019e-05  0.
-1.6852631018409827e-05 3.1805535791986114e-05  0.
0.0 3.366383441902481e-05  0.
-8.655773718573281e-10 3.366378646421249e-05  0.
-4.168955077529302e-09 3.366350257508548e-05  0.
-1.6991381345792514e-08 3.366228938911067e-05  0.
-5.966850433866154e-08 3.365786205916336e-05  0.
-1.7852460549443705e-07 3.364421897093941e-05  0.
-4.495852362385746e-07 3.36094214479748e-05  0.
-9.439799393362647e-07 3.353770006587941e-05  0.
-1.6521077954022225e-06 3.3421113054244234e-05  0.
-2.4643808291316983e-06 3.327209881024689e-05  0.
-3.321308382629526e-06 3.3106666287434416e-05  0.
-4.3452413541216375e-06 3.29007227135462e-05  0.
-5.632633535955842e-06 3.262145818765364e-05  0.
-7.088294140176421e-06 3.237390230705948e-05  0.
-8.675839616352314e-06 3.239793214744035e-05  0.
-1.0290060462429024e-05 3.2730432008734016e-05  0.
-1.1752137264714942e-05 3.3029576122958475e-05  0.
-1.3274641073447042e-05 3.3170175425056184e-05  0.
-1.4638930672107738e-05 3.3499788854619626e-05  0.
-1.59336624871202e-05 3.372979423929951e-05  0.
-1.716238684266537e-05 3.4051864377614965e-05  0.
0.0 3.607660248463716e-05  0.
-9.389321963599566e-10 3.607657650414153e-05  0.
-4.53007763807334e-09 3.607642247246516e-05  0.
-1.848784148237965e-08 3.607576330787015e-05  0.
-6.495194443147794e-08 3.607335653384613e-05  0.
-1.9412460358127121e-07 3.6065947828661235e-05  0.
-4.87174012460719e-07 3.604712427863272e-05  0.
-1.0156812878829237e-06 3.600866644948963e-05  0.
-1.7570383625369735e-06 3.594721829073348e-05  0.
-2.583360403348707e-06 3.587083601279111e-05  0.
-3.4514337105841095e-06 3.578761640893388e-05  0.
-4.5408355885032576e-06 3.568018035797195e-05  0.
-5.933409014730486e-06 3.553137397487549e-05  0.
-7.40656080714775e-06 3.541650308328899e-05  0.
-8.938076061862515e-06 3.5467144005336265e-05  0.
-1.0583794327791754e-05 3.563615850408246e-05  0.
-1.2050024284232624e-05 3.5738864423521447e-05  0.
-1.3469920122046076e-05 3.583096468166112e-05  0.
-1.486678876054211e-05 3.6013068171813276e-05  0.
-1.6137462729676006e-05 3.61764677060988e-05  0.
-1.7335687700952888e-05 3.631493589212241e-05  0.
0.0 3.8450000000000094e-05  0.
-9.647089550689462e-10 3.8450000000000094e-05  0.
-4.657122388117075e-09 3.8450000000000094e-05  0.
-1.901476293762514e-08 3.8450000000000094e-05  0.
-6.681268829458974e-08 3.8450000000000094e-05  0.
-1.9961314953703245e-07 3.8450000000000094e-05  0.
-5.003564547139167e-07 3.8450000000000094e-05  0.
-1.0406436420417515e-06 3.8450000000000094e-05  0.
-1.793033949209504e-06 3.8450000000000094e-05  0.
-2.6232476448324485e-06 3.8450000000000094e-05  0.
-3.495054182257397e-06 3.8450000000000094e-05  0.
-4.6096091303047935e-06 3.8450000000000094e-05  0.
-6.039635983851967e-06 3.8450000000000094e-05  0.
-7.509606126402706e-06 3.8450000000000094e-05  0.
-9.01425165880078e-06 3.8450000000000094e-05  0.
-1.0691291631224266e-05 3.8450000000000094e-05  0.
-1.2156492771606325e-05 3.8450000000000094e-05  0.
-1.3497969296250729e-05 3.8450000000000094e-05  0.
-1.4957421703273971e-05 3.8450000000000094e-05  0.
-1.6175340346504218e-05 3.8450000000000094e-05  0.
-1.7511369729194057e-05 3.8450000000000094e-05  0.
</DataArray>
<DataArray type="Float64" Name="sigma_xx" NumberOfComponents="1" format="ascii" >
74515.18896535167 
74515.02567406007 
74514.3137438675 
74512.18859717555 
74506.46048859919 
74492.19457926755 
74459.17589971592 
74387.86190380184 
74243.60103503999 
73969.34709426037 
73477.82756056407 
72645.00257316839 
71307.39157802932 
69266.08343524317 
66299.62816063204 
62186.2400908446 
56731.10629380027 
49765.19899954066 
40818.86959179102 
25456.857815603355 
15160.063856500808 
220596.02570957397 
220595.65190226107 
220593.9898382469 
220588.89818308273 
220574.8217201375 
220538.9340436514 
220454.07870401038 
220267.21481792902 
219882.49421908127 
219139.35401424437 
217788.18358259834 
215468.87598609948 
211700.08446225178 
205888.07935995597 
197362.62990494573 
185442.28491367272 
169517.65501054534 
149061.11722819688 
122778.23878268641 
80786.21223843726 
53652.8672164804 
792618.0109066647 
792616.7821112659 
792611.2259415861 
792593.8476171232 
792544.9067838261 
792418.2331972199 
792115.1601627233 
791441.8813970285 
790047.3889027007 
787344.2121780452 
782422.497060378 
773977.8616922819 
760281.4830329261 
739222.6619487212 
708446.1779189808 
665586.2055335192 
608541.9427742432 
535399.9760785236 
441002.6904847567 
290636.74183808494 
193831.85015272023 
2279505.579102769 
2279501.8989506084 
2279485.0359082343 
2279431.469032866 
2279278.7252389025 
2278880.002768562 
2277921.612250224 
2275790.440785346 
2271386.825741494 
2262896.674069761 
2247563.292390017 
2221526.4161574175 
2179810.079159516 
2116530.729237281 
2025356.0216347328 
1900170.429413286 
1735694.7872772082 
1526525.6937809577 
1254675.34394828 
815832.1660458236 
532322.8142838308 
5376487.972523568 
5376477.828205429 
5376430.801039901 
5376279.4961643 
5375844.1513766805 
5374702.723623929 
5371959.744792674 
5365888.645872302 
5353455.33261897 
5329790.956032494 
5287754.6845704205 
5217778.260827076 
5108175.023442098 
4945999.7013040865 
4718379.313225028 
4413996.693620807 
4023722.845149626 
3535241.376544159 
2894854.6695468803 
1847432.4806347995 
1169535.2216106397 
10110926.277942985 
10110900.466188071 
10110779.607280789 
10110386.825234752 
10109250.386228792 
10106270.281529106 
10099146.95864665 
10083550.342576832 
10052122.34026397 
9993575.70307286 
9892306.432216423 
9728962.293589454 
9482211.237353358 
9131532.873030085 
8660333.40067325 
8058091.078820314 
7318234.140374167 
6417297.15433965 
5219971.450602461 
3237180.1646753224 
1955856.180890185 
14623851.773231179 
14623791.052249696 
14623504.347949322 
14622565.603548516 
14619843.555007754 
14612734.459981648 
14595921.010626534 
14559738.7793324 
14488564.097791784 
14360023.173838485 
14146004.054677442 
13816160.711402321 
13343689.336935934 
12711951.218296643 
11919409.47151505 
10979357.961391807 
9905833.674808698 
8653599.061616931 
6939284.1650376255 
4090443.091904789 
2272771.0251950175 
15848139.271747336 
15848006.710592523 
15847376.431419518 
15845301.963888906 
15839291.442264374 
15823718.768015778 
15787461.261164248 
15711266.219589096 
15566129.968827445 
15314583.294777244 
14916530.437539028 
14339702.58244533 
13572256.88892378 
12632645.189067816 
11571206.72065603 
10456840.05194173 
9331870.04950221 
8084072.273107823 
6233186.534405671 
3278431.547179755 
1490378.4600600568 
13553473.814151723 
13553203.704705779 
13551911.89308944 
13547645.365558023 
13535322.931357328 
13503756.572880832 
13431737.247653492 
13284846.895211378 
13016095.16292183 
12573758.679809164 
11917603.911572924 
11039847.114397494 
9982312.078712631 
8839390.043558557 
7739449.164165482 
6797934.52110452 
6017475.475052139 
5099075.811587606 
3420243.0338025508 
1217356.4726126906 
135854.75204473082 
12029107.408607436 
12028591.434602097 
12026111.46635982 
12017903.56445795 
11994318.406906156 
11934753.9808362 
11802158.295963623 
11541281.376256952 
11086659.427826881 
10384188.06107152 
9422665.198954606 
8261793.403157089 
7037708.229007932 
5934060.794488708 
5117272.297135251 
4639297.386623026 
4283610.54835138 
3431322.3431769544 
1593168.7847766166 
10545.840576089686 
-388976.348678797 
13466182.433581036 
13465256.953225916 
13460790.267236592 
13445993.661872273 
13403762.477918332 
13298892.946591139 
13072090.84532686 
12644436.297433786 
11941233.854895692 
10934888.026103932 
9688891.306382526 
8372470.1173626585 
7220563.5901858285 
6442402.885096023 
6107009.197333274 
6018484.19218868 
5595114.712203922 
4041355.926773141 
1572003.5032563915 
39307.22794760438 
-182125.47386956867 
14074435.398820892 
14072874.475263387 
14065315.290989423 
14040276.616691025 
13969387.569715273 
13796687.581664529 
13435287.200279232 
12786588.494227804 
11790567.404952599 
10491418.794981401 
9073162.386790292 
7818453.518783979 
6986656.375071573 
6661173.331028366 
6647135.397826464 
6414055.965715966 
5183758.316932885 
2638794.2700757887 
233923.54069906287 
-445810.7408834151 
-295797.75023682835 
12952043.95197574 
12949562.527481534 
12937511.872196354 
12897626.381584005 
12785697.532414652 
12518584.526463741 
11979540.29311972 
11064551.811769452 
9767456.394593678 
8253827.319840229 
6843336.085125095 
5861034.597456838 
5435373.966861279 
5370629.967266754 
5168946.7328170305 
4168787.1853912226 
1903764.411365386 
-789133.6171214262 
-1707732.4867265958 
-659143.3865823946 
92821.07159096794 
13320213.59923384 
13316489.967164736 
13298365.26335463 
13238448.723102722 
13071844.284969918 
12682682.786846131 
11927310.836150404 
10722636.916284282 
9165974.108633647 
7576969.284732376 
6364349.61313971 
5748868.309718988 
5563918.812676191 
5327192.5519133005 
4454026.935054952 
2571722.123062781 
-5583.834154736716 
-1559862.1242894286 
-867258.4627852442 
266642.5819019277 
517473.52756284876 
13622160.810816593 
13616880.71445541 
13591132.779378988 
13506142.758095287 
13271962.550666336 
12736569.803805657 
11738550.4513993 
10252039.390113937 
8526750.961979695 
7028678.681499703 
6134106.116852686 
5792790.345884007 
5497270.502119841 
4697845.338661188 
3115396.325777955 
900569.5904801188 
-880720.5824105705 
-892164.9394261532 
154625.82030038675 
11997.83203834691 
-617611.631730821 
13177409.057992674 
13170325.351578446 
13135731.97141049 
13021724.128725845 
12710272.072170638 
12012678.183332408 
10763700.659310928 
9033813.485140692 
7259338.5150939105 
5992690.535977825 
5402132.931343115 
5074060.501802673 
4337714.36029684 
2913273.1837846893 
1104660.5999710131 
-626215.1039157978 
-1207651.159648501 
-558624.2742538683 
-240201.27216451103 
-391796.41372055723 
-424947.256655802 
13452097.56292155 
13443099.037740171 
13399105.186271438 
13254334.316013837 
12861855.381501004 
11998980.369953744 
10511957.557983508 
8599320.719773758 
6893283.966986701 
5933413.357476429 
5504376.028283785 
4882825.506618248 
3624300.6419083867 
1914414.8280472974 
478590.79293164867 
-337889.3933045529 
-351828.8745461006 
40959.507593080634 
-313732.9820229432 
-96841.27341002226 
597320.9914875799 
13375307.630325152 
13364476.276877003 
13311477.657569299 
13137302.385598078 
12668101.521355035 
11652650.871278388 
9960556.56955605 
7931989.595458574 
6376962.574471194 
5721188.723385747 
5256723.010124072 
4133172.6959775137 
2573375.0341303293 
1102279.9688453933 
198767.01867514732 
6398.251002284698 
-187375.64401732013 
-72301.51513934904 
-186691.40176105127 
-354806.6591740863 
-74399.12231156649 
13326856.159741348 
13314495.761417065 
13253980.729419786 
13055302.998329159 
12522642.615733074 
11383558.637619179 
9535051.659448257 
7446905.850169363 
6066978.888733622 
5651182.151373901 
5005416.939894769 
3352014.3764571818 
1830057.151750247 
948605.273768052 
194573.87252140325 
72662.53038016334 
-137853.62878598832 
-196242.46618665964 
139498.281400786 
46660.93433479732 
2742.9153511477634 
13423762.405077778 
13410384.957330674 
13344868.63495286 
13129907.066494655 
12555290.216460433 
11335650.84324618 
9389796.328977589 
7278671.5206078375 
6035680.278510838 
5766769.193129367 
4923161.109553156 
2883181.1913715582 
1579880.8234111893 