<?xml version="1.0"?>
<VTKFile type="UnstructuredGrid" version="0.1" byte_order="LittleEndian" compressor="vtkZLibDataCompressor">
<UnstructuredGrid>
<Piece NumberOfPoints="441" NumberOfCells="400">
<PointData>
<DataArray type="Float64" Name="displacement" NumberOfComponents="3" format="ascii" >
0.0 4.8411559145458235e-18  0.
4.296284191439488e-22 4.845004951781213e-18  0.
-2.2267367514784104e-24 4.845381441822404e-18  0.
-9.048898470025806e-25 4.8453787586525195e-18  0.
-1.8867242520825328e-24 4.845378360100168e-18  0.
-1.0765547270789221e-23 4.8453707107869605e-18  0.
-3.189331272124066e-22 4.845144191541856e-18  0.
-6.104061887393619e-22 4.843417149560892e-18  0.
-2.7984174957749657e-21 4.8398484077797994e-18  0.
-4.526036886255018e-21 4.832045359153644e-18  0.
-9.716090788266836e-21 4.816200244961531e-18  0.
-1.7941138637245788e-20 4.787005689519178e-18  0.
-3.305969567034748e-20 4.739443414452265e-18  0.
-5.348625423968129e-20 4.66489945821811e-18  0.
-9.650990055577468e-20 4.5252344695039714e-18  0.
-1.4019178190155544e-19 4.304690707597761e-18  0.
-2.0013957856303063e-19 3.982488186870599e-18  0.
-2.567610807092341e-19 3.555028151832841e-18  0.
-3.3117366488064533e-19 3.0089191227227164e-18  0.
-4.1645880899118477e-19 2.3417904005999466e-18  0.
-1.1733978497438708e-18 2.354991952276377e-18  0.
0.0 5.0246795609247625e-17  0.
-2.253246232044772e-22 5.024951891357756e-17  0.
-3.142655646695723e-23 5.024940522883769e-17  0.
-1.7642262658819022e-23 5.024937922790154e-17  0.
-7.260394516425849e-23 5.024935910678908e-17  0.
-3.000476469843172e-22 5.024921299123701e-17  0.
-1.7577863608823756e-21 5.024761620569106e-17  0.
-4.980868665415871e-21 5.023926899256452e-17  0.
-1.4922441831066757e-20 5.022438885203242e-17  0.
-3.888932151817604e-20 5.0173076559087706e-17  0.
-8.567838697275997e-20 5.006392740923835e-17  0.
-1.7211429358087378e-19 4.984043915495363e-17  0.
-3.226041332572892e-19 4.939739414146411e-17  0.
-5.70123473444089e-19 4.858315045074519e-17  0.
-9.369313067404056e-19 4.7213900746922565e-17  0.
-1.435011064530612e-18 4.506676132300548e-17  0.
-2.065740044808638e-18 4.188300572695415e-17  0.
-2.7834430225571698e-18 3.7482201227240234e-17  0.
-3.554885242577095e-18 3.170796603725587e-17  0.
-4.536073604527616e-18 2.4871239820839824e-17  0.
-1.3516844756555036e-17 2.531348817382893e-17  0.
0.0 9.27014823943016e-16  0.
-9.93082993726857e-22 9.270075195956316e-16  0.
-6.249140577856491e-22 9.270039324120721e-16  0.
-4.1072594512271776e-23 9.270034361778437e-16  0.
-1.1612980753882768e-21 9.27002278555851e-16  0.
-4.982691417882512e-21 9.269953887912406e-16  0.
-2.0751293874992288e-20 9.269718562031973e-16  0.
-7.170480236830505e-20 9.268959842707926e-16  0.
-2.099812754758467e-19 9.266550574371756e-16  0.
-5.539303117127365e-19 9.259969986213985e-16  0.
-1.3022118331949548e-18 9.243737706368523e-16  0.
-2.7673865953560757e-18 9.207797595829608e-16  0.
-5.426399649035228e-18 9.135304056837967e-16  0.
-9.834345283207265e-18 8.999673417380477e-16  0.
-1.652619072284809e-17 8.764831437310581e-16  0.
-2.5869216801342943e-17 8.38602515974352e-16  0.
-3.7857344494435246e-17 7.815500542649042e-16  0.
-5.189674039625147e-17 7.01068517728513e-16  0.
-6.694438075538103e-17 5.946794812240575e-16  0.
-8.626311971635555e-17 4.674464160663405e-16  0.
-2.56698148745808e-16 4.774481414626135e-16  0.
0.0 1.5260879136968242e-14  0.
-3.7021534238126876e-21 1.5260875728883498e-14  0.
-1.0573610828146173e-21 1.5260874000706087e-14  0.
-6.7018151085142265e-22 1.5260872091760452e-14  0.
-8.155874186254262e-21 1.526086402795776e-14  0.
-5.052848449017264e-20 1.5260817012429823e-14  0.
-2.2432251411905075e-19 1.526059031182808e-14  0.
-8.098866952969588e-19 1.525973010763791e-14  0.
-2.5502195633159028e-18 1.5256895499975776e-14  0.
-7.076358034336543e-18 1.5248706521987646e-14  0.
-1.7542666164603818e-17 1.5227567803285313e-14  0.
-3.923437359812788e-17 1.5178437090591583e-14  0.
-8.00160400434996e-17 1.5074631547721568e-14  0.
-1.4978665122407843e-16 1.487364254302892e-14  0.
-2.5876834350254554e-16 1.4514948318090592e-14  0.
-4.1445781560270603e-16 1.3921992624035823e-14  0.
-6.178678663606747e-16 1.3010457925668427e-14  0.
-8.598981470021443e-16 1.1703139081546825e-14  0.
-1.1229783841333322e-15 9.95226291838869e-15  0.
-1.4646582717053308e-15 7.844219954718362e-15  0.
-4.335551953095935e-15 8.041174395218594e-15  0.
0.0 2.2205220023922991e-13  0.
-5.885564999143593e-21 2.2205219994164477e-13  0.
-5.667010347947891e-22 2.2205220280848526e-13  0.
-4.6524453475497315e-21 2.2205219926751272e-13  0.
-5.71706742896639e-20 2.2205215670822951e-13  0.
-3.744290498045935e-19 2.220518358769759e-13  0.
-1.8527378184530844e-18 2.2205011752064264e-13  0.
-7.54871915838007e-18 2.2204261578120718e-13  0.
-2.6018428697717863e-17 2.220152365962557e-13  0.
-7.785557463412388e-17 2.219291968436824e-13  0.
-2.053175312615362e-16 2.216917726518692e-13  0.
-4.842318877564809e-16 2.2110812432037973e-13  0.
-1.0315541610491428e-15 2.1981540122247867e-13  0.
-2.0026490802403506e-15 2.1721198553373804e-13  0.
-3.565866416311883e-15 2.1241073073027417e-13  0.
-5.856702358619342e-15 2.0425434413960727e-13  0.
-8.910697089290547e-15 1.9143095090436142e-13  0.
-1.26069547124551e-14 1.7270243291227745e-13  0.
-1.6681512741526822e-14 1.472639145344597e-13  0.
-2.2053289188679555e-14 1.1642815447749034e-13  0.
-6.483604178364424e-14 1.1985427049504929e-13  0.
0.0 2.8313815030165072e-12  0.
-3.196852704479297e-21 2.8313815053480656e-12  0.
-1.6013911571094221e-21 2.831381504675914e-12  0.
-2.8184647607172245e-20 2.831381486321344e-12  0.
-2.9199687218570685e-19 2.831381269038869e-12  0.
-2.1491412997076813e-18 2.831379584941986e-12  0.
-1.247160550961822e-17 2.8313689241913547e-12  0.
-5.782173836380548e-17 2.8313155248117093e-12  0.
-2.2247853951752694e-16 2.831096170136258e-12  0.
-7.258452974078885e-16 2.8303377575350056e-12  0.
-2.0582966122912285e-15 2.828074220512206e-12  0.
-5.148346616937215e-15 2.8221407816202087e-12  0.
-1.1521925824144897e-14 2.808279019344401e-12  0.
-2.3288552851867055e-14 2.779106158025986e-12  0.
-4.2885384075453497e-14 2.723301988830941e-12  0.
-7.238982940250477e-14 2.6256057964304553e-12  0.
-1.1263155919926436e-13 2.468177600203346e-12  0.
-1.6220885760751983e-13 2.233650100202641e-12  0.
-2.177407520799317e-13 1.910212642423128e-12  0.
-2.922133412924363e-13 1.515551074558839e-12  0.
-8.515300516501513e-13 1.5679562315192624e-12  0.
0.0 3.1327787656569233e-11  0.
-1.0782270238544014e-20 3.1327787647445334e-11  0.
-5.9104259405701765e-21 3.132778764121054e-11  0.
-1.1214995875333975e-19 3.1327787570750763e-11  0.
-1.2015478631254315e-18 3.1327786798174844e-11  0.
-9.952639457591478e-18 3.132777976028439e-11  0.
-6.711053763551616e-17 3.1327727980096435e-11  0.
-3.6206647216934656e-16 3.1327422503598544e-11  0.
-1.5693790829923628e-15 3.1325990724448104e-11  0.
-5.672583529382662e-15 3.1320455474829614e-11  0.
-1.7438677112954577e-14 3.130239189218767e-11  0.
-4.66814012067444e-14 3.1251411912956756e-11  0.
-1.1031931071104724e-13 3.112494318982456e-11  0.
-2.3335789864432865e-13 3.0845249238792677e-11  0.
-4.4578844027314155e-13 3.028808086084546e-11  0.
-7.756181327582274e-13 2.9279646746714354e-11  0.
-1.2362830469252263e-12 2.761023246844472e-11  0.
-1.8153357167324004e-12 2.5068963597090735e-11  0.
-2.4748866035682066e-12 2.1506527010631068e-11  0.
-3.377818082604099e-12 1.7133278545421013e-11  0.
-9.729692471223298e-12 1.7832415869013213e-11  0.
0.0 2.9735007590990016e-10  0.
-1.4147985053570397e-20 2.9735007592400524e-10  0.
-1.9566969703154595e-20 2.9735007591752444e-10  0.
-3.7094641756036483e-19 2.9735007571129187e-10  0.
-4.1487819396223776e-18 2.973500732819311e-10  0.
-3.851299552235056e-17 2.973500488022672e-10  0.
-2.944826822665337e-16 2.9734984467070053e-10  0.
-1.823353134972096e-15 2.973484615041332e-10  0.
-9.074969276890892e-15 2.9734092636968135e-10  0.
-3.659897346767856e-14 2.9730802957811363e-10  0.
-1.236421560396148e-13 2.971889630723406e-10  0.
-3.564759944834799e-13 2.9682394429365063e-10  0.
-8.965403922456807e-13 2.95854395343226e-10  0.
-1.9926906962743148e-12 2.935885305493684e-10  0.
-3.9660139119226096e-12 2.888661308639022e-10  0.
-7.1286960190791186e-12 2.8000126245920625e-10  0.
-1.1667077788034362e-11 2.6488730529019816e-10  0.
-1.7488486554373468e-11 2.413374844095295e-10  0.
-2.4249616710694853e-11 2.0774670673749907e-10  0.
-3.3723146149829184e-11 1.663133159483662e-10  0.
-9.56743751251076e-11 1.7437618021744887e-10  0.
0.0 2.388682728033601e-09  0.
-3.797500388907449e-21 2.388682728037792e-09  0.
-6.559604624900822e-20 2.3886827280017587e-09  0.
-1.0447884243204423e-18 2.3886827274938347e-09  0.
-1.2496642293972934e-17 2.388682720903836e-09  0.
-1.2720211012265445e-16 2.3886826483502074e-09  0.
-1.080060060409932e-15 2.3886819782104222e-09  0.
-7.529661614243333e-15 2.3886768694152747e-09  0.
-4.254145431025919e-14 2.388645231437902e-09  0.
-1.9412242119103906e-13 2.3884871366592284e-09  0.
-7.240408323746035e-13 2.387848274138901e-09  0.
-2.272559394093223e-12 2.385696786440617e-09  0.
-6.110218372218369e-12 2.379536500660159e-09  0.
-1.4357758316886455e-11 2.36422342939709e-09  0.
-2.985308931292304e-11 2.330693263997255e-09  0.
-5.561072514058929e-11 2.265188452185699e-09  0.
-9.357558868116373e-11 2.149917137908938e-09  0.
-1.4340676947081475e-10 1.965788202904436e-09  0.
-2.0243636569136801e-10 1.6983946300538355e-09  0.
-2.8752622129923103e-10 1.3678426653066564e-09  0.
-7.993899702757044e-10 1.4473322315481963e-09  0.
0.0 1.5982581635760805e-08  0.
-8.175811265731076e-21 1.5982581635755634e-08  0.
-1.720196099347562e-19 1.5982581635679947e-08  0.
-2.600119088450884e-18 1.598258163452042e-08  0.
-3.3294676285716556e-17 1.598258161875299e-08  0.
-3.6562605435486897e-16 1.5982581432076023e-08  0.
-3.387444713097049e-15 1.5982579556258385e-08  0.
-2.607871764523045e-14 1.598256380774336e-08  0.
-1.6448374470577697e-13 1.5982454948427175e-08  0.
-8.414530990211941e-13 1.5981843737129443e-08  0.
-3.4946178048506762e-12 1.5979064540152726e-08  0.
-1.1968214513778133e-11 1.5968749217175504e-08  0.
-3.4652455971675126e-11 1.5936669751077008e-08  0.
-8.629936311307563e-11 1.5851493874399962e-08  0.
-1.8820510291491355e-10 1.565471842009918e-08  0.
-3.637584703777343e-10 1.5253701846273793e-08  0.
-6.303713697810008e-10 1.4524060679726443e-08  0.
-9.8791777098746e-10 1.3328355840059204e-08  0.
-1.4213245742790844e-09 1.1561074859570498e-08  0.
-2.066205103618825e-09 9.38232530267843e-09  0.
-5.591448148601103e-09 1.004390924749973e-08  0.
0.0 8.73726925253104e-08  0.
-2.1773304097817257e-20 8.73726925253063e-08  0.
-3.7921089128404006e-19 8.73726925251749e-08  0.
-5.8525191206687064e-18 8.737269252286038e-08  0.
-7.935145546426875e-17 8.737269248929211e-08  0.
-9.287247715819234e-16 8.73726920667077e-08  0.
-9.251729871669024e-15 8.737268751391037e-08  0.
-7.736163485916825e-14 8.7372646104657e-08  0.
-5.353076379574823e-13 8.73723327799248e-08  0.
-3.026845419967357e-12 8.73703873104965e-08  0.
-1.3893726767414836e-11 8.736057971638876e-08  0.
-5.206344689152352e-11 8.73203913962332e-08  0.
-1.6229622259651135e-10 8.718470023367306e-08  0.
-4.297288336389895e-10 8.679871170902442e-08  0.
-9.83099781125109e-10 8.585693892333819e-08  0.
-1.973809292652981e-09 8.385256533256646e-08  0.
-3.5198519515270596e-09 8.008254384677848e-08  0.
-5.639979559221077e-09 7.374917458842985e-08  0.
-8.268218340262037e-09 6.424508827093637e-08  0.
-1.2330785093676226e-08 5.267297000191097e-08  0.
-3.2164688810094936e-08 5.724861105153521e-08  0.
0.0 3.8121018702301013e-07  0.
-4.322426141267577e-20 3.8121018702300504e-07  0.
-7.500008854159332e-19 3.812101870227494e-07  0.
-1.2006929062783945e-17 3.812101870185375e-07  0.
-1.7081973569939242e-16 3.8121018695441666e-07  0.
-2.1087019744211486e-15 3.8121018610465997e-07  0.
-2.2316943632505952e-14 3.812101764024814e-07  0.
-1.9989031595805074e-13 3.812100821268484e-07  0.
-1.4943772269249038e-12 3.81209313146505e-07  0.
-9.198328858224569e-12 3.8120412352725543e-07  0.
-4.612181337710463e-11 3.811755077406627e-07  0.
-1.8790345891304254e-10 3.8104752586558663e-07  0.
-6.287297235360444e-10 3.805805822049517e-07  0.
-1.7646983430183512e-09 3.791640922477268e-07  0.
-4.227437079224861e-09 3.7552384656546e-07  0.
-8.792695710317772e-09 3.674594188338671e-07  0.
-1.6094785077354173e-08 3.5183119014230426e-07  0.
-2.6287250125631572e-08 3.25033368117339e-07  0.
-3.921724830864541e-08 2.8448070721949995e-07  0.
-6.007548583514831e-08 2.3666064400894613e-07  0.
-1.4899288675784964e-07 2.6247369797017683e-07  0.
0.0 1.290077148690588e-06  0.
-7.484133016117524e-20 1.2900771486905682e-06  0.
-1.3498746591239805e-18 1.290077148690184e-06  0.
-2.2586635597066213e-17 1.2900771486831984e-06  0.
-3.3433862727127543e-16 1.2900771485728658e-06  0.
-4.31559593684229e-15 1.2900771470473203e-06  0.
-4.803617135201512e-14 1.2900771287672558e-06  0.
-4.555311374565917e-13 1.290076941133868e-06  0.
-3.6314589780044595e-12 1.290075312878985e-06  0.
-2.3996930865288626e-11 1.290063536081907e-06  0.
-1.2975014756024486e-10 1.289993553832298e-06  0.
-5.693019055593966e-10 1.2896557367331467e-06  0.
-2.031586051031437e-09 1.2883355943025728e-06  0.
-5.992649042548271e-09 1.2841127188003755e-06  0.
-1.4937896662216236e-08 1.2727929178761683e-06  0.
-3.194493064419879e-08 1.2469506202972693e-06  0.
-5.964216468257192e-08 1.1958437970005254e-06  0.
-9.861859987245028e-08 1.1073632630374992e-06  0.
-1.491719736994215e-07 9.744678071607632e-07  0.
-2.3447521055014743e-07 8.290393858364194e-07  0.
-5.420356243774342e-07 9.449979732481176e-07  0.
0.0 3.280379666050596e-06  0.
-1.1259578419828421e-19 3.2803796660505654e-06  0.
-2.252050858018208e-18 3.280379666049999e-06  0.
-3.904251111691898e-17 3.2803796660395316e-06  0.
-5.974614948519565e-16 3.2803796658689705e-06  0.
-8.003604140386645e-15 3.280379663425025e-06  0.
-9.289320180257462e-14 3.2803796329396892e-06  0.
-9.234708629783188e-13 3.2803793055119164e-06  0.
-7.762414782091295e-12 3.28037631521203e-06  0.
-5.439830538604692e-11 3.280353417635856e-06  0.
-3.132945387227805e-10 3.280208613222659e-06  0.
-1.4649556244657699e-09 3.279463209283014e-06  0.
-5.532894487321045e-09 3.2763709474630897e-06  0.
-1.7016708383893284e-08 3.266020647610162e-06  0.
-4.355275889501672e-08 3.237580879012011e-06  0.
-9.475917000782589e-08 3.171758525056233e-06  0.
-1.7804671560382128e-07 3.0415290510228174e-06  0.
-2.950650794756741e-07 2.8187180628733654e-06  0.
-4.4882262806910097e-07 2.4980232916563175e-06  0.
-7.199144285362307e-07 2.205394925807876e-06  0.
-1.5067644129207725e-06 2.6068286416703306e-06  0.
0.0 6.13716586451004e-06  0.
-1.7796249924010373e-19 6.137165864509991e-06  0.
-3.4951029076901624e-18 6.137165864509241e-06  0.
-6.216565221664584e-17 6.137165864495157e-06  0.
-9.778270412660244e-16 6.1371658642590965e-06  0.
-1.3506037664367637e-14 6.137165860775167e-06  0.
-1.6223645362686876e-13 6.137165815849587e-06  0.
-1.676318928238634e-12 6.1371653149867e-06  0.
-1.47139106681195e-11 6.137160545007416e-06  0.
-1.0818590659836534e-10 6.137122273925011e-06  0.
-6.563173284670482e-10 6.1368675499531064e-06  0.
-3.2367672487834524e-09 6.1354841823293175e-06  0.
-1.2834386075668979e-08 6.12944602110542e-06  0.
-4.088317289689689e-08 6.1084424433333e-06  0.
-1.0627547799866344e-07 6.049813551638797e-06  0.
-2.3154584017149673e-07 5.915225839546957e-06  0.
-4.3121457663410065e-07 5.655576787561164e-06  0.
-7.049900825035204e-07 5.232957992135262e-06  0.
-1.0680562183219329e-06 4.691475223175425e-06  0.
-1.7187749001288405e-06 4.409896301375028e-06  0.
-3.1368009693003894e-06 5.434354437821441e-06  0.
0.0 8.727910268069894e-06  0.
-2.529265781633333e-19 8.727910268069857e-06  0.
-5.0434083412835965e-18 8.727910268068964e-06  0.
-9.155018504542955e-17 8.727910268051856e-06  0.
-1.4724769213189559e-15 8.727910267759267e-06  0.
-2.08502708282071e-14 8.727910263335505e-06  0.
-2.5751884820794e-13 8.727910204736255e-06  0.
-2.7450505406600886e-12 8.727909531434346e-06  0.
-2.4949285641205995e-11 8.727902899236728e-06  0.
-1.906769355847299e-10 8.727847645161572e-06  0.
-1.20641349046715e-09 8.727464384339904e-06  0.
-6.214921192411902e-09 8.725289763069073e-06  0.
-2.5667961861744056e-08 8.715384954535156e-06  0.
-8.421700656382174e-08 8.679765106929541e-06  0.
-2.208478976593053e-07 8.579274538678697e-06  0.
-4.751660771091928e-07 8.353628584770263e-06  0.
-8.656351166949098e-07 7.938916787794209e-06  0.
-1.374816360082859e-06 7.328603802962124e-06  0.
-2.058550774906924e-06 6.732715407718942e-06  0.
-3.2193059933736723e-06 6.9488464012543025e-06  0.
-4.959956966857984e-06 8.75536997462807e-06  0.
0.0 1.0821079676649844e-05  0.
-3.3151682725234364e-19 1.0821079676649813e-05  0.
-6.801084790058421e-18 1.0821079676648865e-05  0.
-1.2525572599721637e-16 1.0821079676630245e-05  0.
-2.050649574530367e-15 1.0821079676306328e-05  0.
-2.9615338502801606e-14 1.0821079671315893e-05  0.
-3.7391236667488695e-13 1.0821079603802493e-05  0.
-4.0850213086556234e-12 1.0821078809595567e-05  0.
-3.816216636084826e-11 1.0821070777147815e-05  0.
-3.006841555320593e-10 1.0821001860965026e-05  0.
-1.9667447811167736e-09 1.0820508047307594e-05  0.
-1.0490968776886417e-08 1.0817607167971784e-05  0.
-4.479404272613803e-08 1.0803927661026044e-05  0.
-1.5067946666812674e-07 1.0753300370294237e-05  0.
-3.974202309589828e-07 1.0609072204245266e-05  0.
-8.379727764443154e-07 1.0294143332268243e-05  0.
-1.4773570729964599e-06 9.757871583454154e-06  0.
-2.282210200700677e-06 9.076358532507e-06  0.
-3.3459678571615114e-06 8.745380528880348e-06  0.
-4.92748135337555e-06 9.769478687971112e-06  0.
-6.475165563402162e-06 1.1733716488212541e-05  0.
0.0 1.3299235018364742e-05  0.
-4.1495792757931047e-19 1.329923501836469e-05  0.
-8.558633829006572e-18 1.329923501836379e-05  0.
-1.595400719115301e-16 1.3299235018346094e-05  0.
-2.6474217521208956e-15 1.3299235018034172e-05  0.
-3.881058409037426e-14 1.3299235013158415e-05  0.
-4.982517728547684e-13 1.329923494612685e-05  0.
-5.545755870836847e-12 1.3299234143284404e-05  0.
-5.289585230666136e-11 1.3299225859179115e-05  0.
-4.2649383338137454e-10 1.329915317449701e-05  0.
-2.860909662881051e-09 1.3298619361253034e-05  0.
-1.567302594132353e-08 1.329539861661931e-05  0.
-6.868360154838343e-08 1.3279791604637706e-05  0.
-2.3581052825760347e-07 1.3220635439025827e-05  0.
-6.253720734177943e-07 1.3050255174968599e-05  0.
-1.2920089274580027e-06 1.268762331993684e-05  0.
-2.1922392135956173e-06 1.2130450862113934e-05  0.
-3.320503283736238e-06 1.1583972544197569e-05  0.
-4.74301790415467e-06 1.1715928605858632e-05  0.
-6.448966320083471e-06 1.3026354384729629e-05  0.
-7.785133964095267e-06 1.4073191025754064e-05  0.
0.0 1.5712736073558938e-05  0.
-4.823525977517117e-19 1.57127360735589e-05  0.
-1.0074911991435664e-17 1.5712736073558213e-05  0.
-1.8939983503912105e-16 1.5712736073544284e-05  0.
-3.1728220106482975e-15 1.5712736073296375e-05  0.
-4.7003809900815727e-14 1.571273606938164e-05  0.
-6.105280033442472e-13 1.5712736014948022e-05  0.
-6.884525217706406e-12 1.57127353547159e-05  0.
-6.662534700585311e-11 1.5712728445225436e-05  0.
-5.459192196050607e-10 1.571266686322691e-05  0.
-3.7272647852899255e-09 1.5712206626856936e-05  0.
-2.0806650047816605e-08 1.5709376819740933e-05  0.
-9.289791719222717e-08 1.569538971738886e-05  0.
-3.2389617782317837e-07 1.5641378578147318e-05  0.
-8.637112532418555e-07 1.5484161574972463e-05  0.
-1.7581728643148165e-06 1.5155237971022143e-05  0.
-2.8772865613742863e-06 1.4704643578052575e-05  0.
-4.246923696994311e-06 1.4449729836736028e-05  0.
-5.894747124094981e-06 1.4868840367654251e-05  0.
-7.3963466221786974e-06 1.5683425487775803e-05  0.
-8.770128661115867e-06 1.5873128369635565e-05  0.
0.0 1.8046169798361657e-05  0.
-5.323728192179408e-19 1.804616979836164e-05  0.
-1.1104964624876105e-17 1.804616979836124e-05  0.
-2.0984205510088182e-16 1.8046169798353525e-05  0.
-3.5352582221430295e-15 1.8046169798215564e-05  0.
-5.2700133164380324e-14 1.804616979602399e-05  0.
-6.892738648902494e-13 1.8046169765350387e-05  0.
-7.832676980156452e-12 1.804616939056926e-05  0.
-7.645540286997297e-11 1.804616543631468e-05  0.
-6.324695530156987e-10 1.8046129869109183e-05  0.
-4.3636554567588585e-09 1.8045861361172524e-05  0.
-2.4633502288455423e-08 1.8044191891206245e-05  0.
-1.1123136670404417e-07 1.8035842245460698e-05  0.
-3.9160718753969727e-07 1.800322660049261e-05  0.
-1.0489919501135904e-06 1.7907485855080685e-05  0.
-2.1190248223484312e-06 1.770915203631277e-05  0.
-3.375337561434638e-06 1.7463901326511414e-05  0.
-4.802169615567312e-06 1.742670015150334e-05  0.
-6.50174585654263e-06 1.774605957390293e-05  0.
-7.860914011954121e-06 1.79913910890345e-05  0.
-9.14487818513434e-06 1.8123448042819682e-05  0.
0.0 2.045e-05  0.
-5.537761147124218e-19 2.045e-05  0.
-1.1475660220402898e-17 2.045e-05  0.
-2.1714216484365365e-16 2.045e-05  0.
-3.664832302169115e-15 2.045e-05  0.
-5.4744834053986e-14 2.045e-05  0.
-7.176597388063213e-13 2.045e-05  0.
-8.176087141155101e-12 2.045e-05  0.
-8.003455528946983e-11 2.045e-05  0.
-6.641704291374017e-10 2.045e-05  0.
-4.5982755372536085e-09 2.045e-05  0.
-2.6054660823140995e-08 2.045e-05  0.
-1.180928080680501e-07 2.045e-05  0.
-4.17152412609907e-07 2.045e-05  0.
-1.1194402797479995e-06 2.045e-05  0.
-2.2564371002400957e-06 2.045e-05  0.
-3.557098474682196e-06 2.045e-05  0.
-4.96208227898954e-06 2.045e-05  0.
-6.651937668522291e-06 2.045e-05  0.
-8.041675344874999e-06 2.045e-05  0.
-9.188393023762416e-06 2.045e-05  0.
</DataArray>
<DataArray type="Float64" Name="sigma_xx" NumberOfComponents="1" format="ascii" >
0.00025428548156014575 
0.00025428548156014575 
0.00025428548156014575 
0.00025428548156014575 
0.00025428548156014575 
0.00025428548156014575 
0.00025428548156014575 
0.00025428548156014575 
0.0002541411525669445 
0.00025398572134349695 
0.0002532196674565056 
0.0002513877994658741 
0.0002484679129111099 
0.00024323876246512544 
0.00023551161021373435 
0.00022376545061320022 
0.00020629054020560028 
0.00018330892359585954 
0.0001542543870414192 
0.00010752509993494636 
7.69384556065233e-05 
0.0025821789151336807 
0.0025821789151336807 
0.0025821789151336807 
0.0025821789151336807 
0.002582101199521957 
0.0025819457682985094 
0.002581795888190185 
0.002581268532253488 
0.002579986224660046 
0.0025770996447960206 
0.0025702995287701915 
0.002556144185206221 
0.002529892961788959 
0.002483635519467952 
0.0024081625582539337 
0.002291938860921049 
0.002122990672148716 
0.0018925916389633804 
0.001592542764328186 
0.0011244394304554812 
0.0008247624805335359 
0.042589864968078914 
0.04258994268369064 
0.04258994268369064 
0.042589864968078914 
0.04258971508797059 
0.04258911001642217 
0.04258723373951055 
0.042581432824206886 
0.04256519026135662 
0.042524228582863074 
0.04242963758116501 
0.04222938110309825 
0.041840220177391516 
0.04113823171003615 
0.03995918596011448 
0.038109276845332815 
0.03538725423801735 
0.03161997885747779 
0.026650454065801903 
0.018820056624235797 
0.01379547587276874 
0.6191506418673496 
0.6191507195829613 
0.6191507195829613 
0.6191504919872413 
0.6191497536889299 
0.6191457402326959 
0.6191291479495928 
0.6190724044508042 
0.6188990153699334 
0.6184299072842234 
0.6172927446979057 
0.6147887976482023 
0.6097417293293714 
0.6003686603417433 
0.5842382189147342 
0.5584009754588946 
0.5197338559526086 
0.4654718555041624 
0.39301339405106706 
0.27737719898723856 
0.20286570201477605 
7.885137875973666 
7.8851378759736654 
7.8851378759736654 
7.885137137675354 
7.885132341511888 
7.885105818283829 
7.884981906292051 
7.884502506438903 
7.882917330004343 
7.878332553001851 
7.8665736258365335 
7.839451177105158 
7.782648986376369 
7.673725821444318 
7.4812471717589055 
7.166091997579114 
6.685881132062475 
6.002022351347945 
5.076769954426295 
3.579608165438229 
2.610512284118015 
87.09606169610137 
87.09606161838576 
87.09606124090993 
87.09605830437003 
87.09603609990954 
87.09589066069331 
87.09511538085299 
87.09176126941995 
87.07957050435586 
87.04157589134451 
86.93782562185778 
86.68608312278889 
86.13620226527449 
85.0448637290668 
83.06072912800386 
79.73575027464538 
74.57254398990362 
67.10584195546151 
56.86062877763296 
40.032167894499246 
29.08662172784736 
824.65254491737 
824.6525448396544 
824.6525438071469 
824.6525336375041 
824.6524456079205 
824.6517904986204 
824.6478295281797 
824.6284259050271 
824.5504651172016 
824.2858881235545 
823.5128791611587 
821.5290680957385 
816.996600133679 
807.6623427250015 
790.1791901604447 
760.1621266506429 
712.6348229136157 
642.8101245903315 
545.5657959341218 
383.22965126846833 
277.0913030247789 
6600.606277462615 
6600.606277312735 
6600.606274692609 
6600.60624382841 
6600.605942130853 
6600.603461476281 
6600.586694610608 
6600.494432090762 
6600.08077958407 
6598.546926916968 
6593.718146752357 
6580.57382586785 
6549.0574024606985 
6481.630851828954 
6351.392527903508 
6122.292253490923 
5752.457388097375 
5200.608121738724 
4420.053312792492 
3094.294943045694 
2222.791459682848 
43919.178037299374 
43919.17803686083 
43919.17802980537 
43919.17794459576 
43919.17704307246 
43919.168972844636 
43919.108982659585 
43918.743126314366 
43916.92468736495 
43909.52229303967 
43884.39326769021 
43811.59348701978 
43628.369787976335 
43220.914247793495 
42410.1918793801 
40950.6723722086 
38552.636973115936 
34923.31302660522 
29709.481446804624 
20692.579371928136 
14731.62352538248 
237970.01518992547 
237970.01518898734 
237970.0151725727 
237970.01496138604 
237970.01257489502 
237969.98962304354 
237969.80472138844 
237968.57319143263 
237961.86181864736 
237932.02978291397 
237822.84296325056 
237486.92733291103 
236600.42864863388 
234557.6826903561 
230383.94237586687 
222726.83373115712 
209974.6176683125 
190472.0132451409 
162046.79560344876 
111994.53737482653 
78726.57596035278 
1022893.3187430231 
1022893.3187410745 
1022893.3187066189 
1022893.3182328589 
1022893.3125711156 
1022893.25472632 
1022892.7560370745 
1022889.1766966837 
1022868.0549991457 
1022766.4358348346 
1022367.4358634995 
1021070.5143296886 
1017501.9865961474 
1009037.4838963631 
991415.3832231705 
958750.1308857684 
904098.6107019224 
820300.81294627 
696804.8486522879 
475816.34500604135 
328256.8491468184 
3370127.1402184363 
3370127.140214534 
3370127.140146938 
3370127.1391766416 
3370127.12703844 
3370126.996532118 
3370125.8053585305 
3370116.6995054753 
3370059.1974902535 
3369762.792380594 
3368522.966974956 
3364290.354453918 
3352270.3960959427 
3323224.4812826817 
3262458.1630118433 
3150332.4874889264 
2965029.8299910272 
2684484.488514673 
2269716.422057526 
1519879.2205140914 
1017942.3635779556 
8131079.102417646 
8131079.102410624 
8131079.102288317 
8131079.100468617 
8131079.07681441 
8131078.81135041 
8131076.269745355 
8131055.7873383295 
8130918.847127236 
8130170.131325212 
8126860.1974822935 
8115063.904264351 
8080788.828591523 
7997689.955160163 
7826016.741218794 
7518225.642242513 
7029230.931715166 
6318794.38189931 
5281942.701563296 
3417141.689905014 
2173692.51721866 
13605791.492477365 
13605791.492466152 
13605791.492261712 
13605791.489127088 
13605791.44704854 
13605790.95760965 
13605786.081566846 
13605745.024085326 
13605457.160578903 
13603803.385556607 
13596138.17865578 
13567786.667285945 
13484058.51427013 
13283181.78791253 
12881756.183010524 
12202546.378486082 
11205611.167437669 
9877609.385806486 
8023484.320786933 
4839848.755962575 
2762250.064885449 
15294730.60070719 
15294730.600690361 
15294730.600373328 
15294730.595393833 
15294730.526744228 
15294729.704261445 
15294721.237098813 
15294647.318103638 
15294108.326074198 
15290881.884540949 
15275319.365463495 
15215897.357620554 
15038276.648294576 
14620669.639345456 
13830380.61847044 
12602570.133261396 
11016095.364172231 
9182395.941593027 
6857275.979238977 
3447370.079452446 
1391238.5759584447 
13146019.955253746 
13146019.95522986 
13146019.954772703 
13146019.947445825 
13146019.844211642 
13146018.577153262 
13146005.18017044 
13145884.733164491 
13144977.960921414 
13139364.030106727 
13111374.604286999 
13001571.83176653 
12670073.583624998 
11909683.497313417 
10572013.853274375 
8720880.73538111 
6697605.131233308 
4764983.655321928 
2612203.502304544 
538537.9411491004 
-320677.37679009326 
12829172.614619628 
12829172.614587737 
12829172.613972515 
12829172.603956202 
12829172.460356198 
12829170.663700875 
12829151.25990834 
12828972.689458031 
12827593.785598729 
12818824.349022154 
12773919.246456204 
12593767.750954855 
12045200.871597994 
10817289.863557117 
8833972.302618612 
6481311.492580308 
4356807.812287134 
2700995.9752269746 
937592.1565605655 
-41562.01048439415 
19894.351787506137 
13730143.38681607 
13730143.386776313 
13730143.386002542 
13730143.373254988 
13730143.188062772 
13730140.836964868 
13730115.033046415 
13729873.32167613 
13727970.543521896 
13715619.262277678 
13651062.093304701 
13387477.132651709 
12579008.507522395 
10806678.146527445 
8183067.334211124 
5628827.384031551 
3754746.396525799 
2353910.6152321654 
894386.7412356948 
-162054.8848899887 
-389912.6846770365 
13322973.104802545 
13322973.104756238 
13322973.10384564 
13322973.08871746 
13322972.866890622 
13322970.021691222 
13322938.440093309 
13322638.912168052 
13320248.91028355 
13304510.117067292 
13221043.662845945 
12875902.904374406 
11811226.010080958 
9512187.77837628 
6355102.239184935 
3915952.3692540443 
2535607.3166624634 
982101.9930227157 
-144529.791695924 
-793986.3800473837 
-1281690.8024248802 
13295764.26927149 
13295764.269220646 
13295764.268216949 
13295764.251459016 
13295764.004374778 
13295760.815884124 
13295725.185775943 
13295384.763699602 
13292646.5904418 
13274460.168614598 
13177173.205224123 
12771781.216777757 
11516577.206017453 
8829747.666150112 
5321040.822791329 
3129838.3811274613 
2286050.8366853152 
328434.4843476671 
-630535.5136585222 