<?xml version="1.0"?>
<VTKFile type="UnstructuredGrid" version="0.1" byte_order="LittleEndian" compressor="vtkZLibDataCompressor">
<UnstructuredGrid>
<Piece NumberOfPoints="441" NumberOfCells="400">
<PointData>
<DataArray type="Float64" Name="displacement" NumberOfComponents="3" format="ascii" >
0.0 7.073303415478113e-19  0.
4.6685106973901837e-23 7.100088387063188e-19  0.
-5.760564766640171e-25 7.100508105972018e-19  0.
-8.073027903320018e-26 7.10050117199697e-19  0.
-1.3040934905862778e-25 7.100501086296622e-19  0.
-3.206258415676436e-25 7.100499553367716e-19  0.
-1.364866423005173e-24 7.1004933743556e-19  0.
-1.556366937300936e-23 7.100362218074432e-19  0.
-7.621875755870865e-22 7.094723356605684e-19  0.
-4.606019664542023e-22 7.072103501439985e-19  0.
-1.1538704144156028e-21 7.062684699888762e-19  0.
-2.434800882144727e-21 7.017703791116622e-19  0.
-3.996013132443362e-21 6.954494541196921e-19  0.
-5.980303073425622e-21 6.887963356646474e-19  0.
-1.48878339958352e-20 6.707057702304491e-19  0.
-2.2244167697950698e-20 6.352219576556507e-19  0.
-3.109575179571691e-20 5.814641881603683e-19  0.
-3.6164128493912686e-20 5.196771351491438e-19  0.
-5.0049177691175773e-20 4.4006891014336665e-19  0.
-6.089320902115506e-20 3.3798959645463e-19  0.
-1.717111655481902e-19 3.397374232308044e-19  0.
0.0 8.469096521713435e-18  0.
-8.04790335186043e-23 8.470820122733057e-18  0.
-3.1609221325362228e-24 8.470828461419015e-18  0.
-3.676795467765064e-24 8.470823476474855e-18  0.
-1.524571352994464e-23 8.470821884972116e-18  0.
-1.636868667975973e-23 8.470826996220794e-18  0.
-1.8074047797125527e-22 8.470690958358918e-18  0.
-3.0572290954015957e-22 8.469971412024945e-18  0.
-2.6026673932526632e-21 8.46839731614634e-18  0.
-6.017491007854715e-21 8.457992029596557e-18  0.
-1.4840035276784465e-20 8.438996015501144e-18  0.
-2.7333116471264043e-20 8.403759837688928e-18  0.
-5.25644762835381e-20 8.332126432715182e-18  0.
-9.380276381840822e-20 8.19485179602455e-18  0.
-1.5742416703116904e-19 7.961644311324925e-18  0.
-2.404316675788127e-19 7.599632503111122e-18  0.
-3.4442088729441535e-19 7.059860619517196e-18  0.
-4.642126710609338e-19 6.327881310215488e-18  0.
-5.911998995724949e-19 5.348674691264824e-18  0.
-7.542012613298495e-19 4.198251872599455e-18  0.
-2.265269765172385e-18 4.26410877156819e-18  0.
0.0 1.7423612870573956e-16  0.
-4.470442717167112e-22 1.7422992766140665e-16  0.
-2.442457536423888e-22 1.742284143564754e-16  0.
-9.896436708885211e-24 1.742282423981269e-16  0.
-4.538596015985469e-22 1.742278541957285e-16  0.
-5.78282725188202e-22 1.7422591040350952e-16  0.
-2.686465905191915e-21 1.7422295444878786e-16  0.
-1.0911354120525593e-20 1.7420961655167956e-16  0.
-3.5970006424276777e-20 1.7417014696320666e-16  0.
-9.940324953300988e-20 1.7405498391634836e-16  0.
-2.4085836775723553e-19 1.7375400475211003e-16  0.
-5.058944111495808e-19 1.730810431101173e-16  0.
-9.927571340406549e-19 1.7173893880702602e-16  0.
-1.811894745429809e-18 1.6921453287217083e-16  0.
-3.052359710114114e-18 1.6483300090841094e-16  0.
-4.785720973809028e-18 1.5775583142155702e-16  0.
-7.01710402680256e-18 1.4706761609336223e-16  0.
-9.632426256159e-18 1.3197492910393929e-16  0.
-1.2432185806970522e-17 1.1199588397422663e-16  0.
-1.5988464001087814e-17 8.802722749660904e-17  0.
-4.8083146163331874e-17 8.973806644847539e-17  0.
0.0 3.1994757620507438e-15  0.
-2.427675237292086e-21 3.199476423391645e-15  0.
-8.384076037357939e-22 3.199473794762578e-15  0.
-7.083581942920113e-23 3.1994730379251694e-15  0.
-9.900164899431996e-22 3.199472827192142e-15  0.
-7.379097996030739e-21 3.1994662756215713e-15  0.
-4.342047668072165e-20 3.1994194471174095e-15  0.
-1.56328184258965e-19 3.1992509526556354e-15  0.
-5.003878981261107e-19 3.198684685337283e-15  0.
-1.4114546428793404e-18 3.1970316791151007e-15  0.
-3.535734136516284e-18 3.1927263684190967e-15  0.
-7.955188098279646e-18 3.182643193784117e-15  0.
-1.6291739194923587e-17 3.1612393427218527e-15  0.
-3.064655702721506e-17 3.1196209749931517e-15  0.
-5.3117269475686015e-17 3.0451153380230137e-15  0.
-8.530453872620677e-17 2.921606175779496e-15  0.
-1.2745928373950727e-16 2.731338781997077e-15  0.
-1.7769798205549273e-16 2.457953029125182e-15  0.
-2.323155815780074e-16 2.0912472723583323e-15  0.
-3.02443788690612e-16 1.6480558138484924e-15  0.
-9.055402130032354e-16 1.6858117483879296e-15  0.
0.0 5.1986271725597375e-14  0.
-4.543719947199655e-21 5.198626820836092e-14  0.
-6.219135265554346e-22 5.198627057448447e-14  0.
-4.545682347304066e-22 5.198627055695821e-14  0.
-7.904955217219124e-21 5.198626305358781e-14  0.
-7.210185571374609e-20 5.198620107452114e-14  0.
-3.836682185795128e-19 5.198584923604477e-14  0.
-1.6124060506329093e-18 5.198422369278512e-14  0.
-5.648035852588998e-18 5.197818078547775e-14  0.
-1.7157272027274455e-17 5.195895746414462e-14  0.
-4.5734209681292897e-17 5.190531499806448e-14  0.
-1.0878017108481425e-16 5.1772361012912985e-14  0.
-2.3327892192042415e-16 5.147596709511889e-14  0.
-4.553243145773959e-16 5.087591228974461e-14  0.
-8.142373634014201e-16 4.976463457561143e-14  0.
-1.341996736337716e-15 4.7870320667355406e-14  0.
-2.047461160251743e-15 4.488393244324632e-14  0.
-2.9030727907918865e-15 4.051271960925182e-14  0.
-3.846490459765467e-15 3.4563802667095204e-14  0.
-5.075130614192917e-15 2.7320156795074088e-14  0.
-1.5113413707289616e-14 2.8053975377295944e-14  0.
0.0 7.411910193858093e-13  0.
-1.781950816628455e-21 7.411910213890445e-13  0.
-6.988626713647731e-22 7.411910223085958e-13  0.
-2.6631936276185626e-21 7.411910196564434e-13  0.
-5.48051742116246e-20 7.411909753615123e-13  0.
-4.485460218160111e-19 7.411906182028511e-13  0.
-2.7720851219251895e-18 7.41188216040869e-13  0.
-1.3362886717865762e-17 7.411756974118707e-13  0.
-5.28633124346039e-17 7.411227724694537e-13  0.
-1.7590346798657412e-16 7.40936039725719e-13  0.
-5.062528248211856e-16 7.403704202645205e-13  0.
-1.2804994143410766e-15 7.388711416703175e-13  0.
-2.891177880644057e-15 7.353379160173656e-13  0.
-5.8843026668277656e-15 7.278510944035922e-13  0.
-1.089637172906495e-14 7.134512505319718e-13  0.
-1.8474331493883055e-14 6.881311068650258e-13  0.
-2.8845943606825316e-14 6.471871636989138e-13  0.
-4.165603620250762e-14 5.860212696717503e-13  0.
-5.601089516359023e-14 5.014594659577805e-13  0.
-7.500812706853098e-14 3.977090817006791e-13  0.
-2.2178661325130266e-13 4.1026046996575277e-13  0.
0.0 9.184111849436074e-12  0.
-8.874259670512915e-21 9.184111840913584e-12  0.
-8.247076211024761e-22 9.184111837515292e-12  0.
-1.5013237301590693e-20 9.184111826403451e-12  0.
-2.376336054589799e-19 9.184111676744912e-12  0.
-2.1489116325892857e-18 9.184110146717647e-12  0.
-1.563401723147042e-17 9.184097984465701e-12  0.
-8.966673598540049e-17 9.184021344609992e-12  0.
-4.042964948478959e-16 9.183646547904943e-12  0.
-1.5042259692601567e-15 9.182153506630016e-12  0.
-4.719199975111496e-15 9.177177854631687e-12  0.
-1.2830905541780361e-14 9.162913814412095e-12  0.
-3.067940746899143e-14 9.127108384368643e-12  0.
-6.550053754137927e-14 9.047190735481844e-12  0.
-1.2603418582264878e-13 8.886836521653301e-12  0.
-2.2055624665836317e-13 8.594937184300394e-12  0.
-3.5314190375579846e-13 8.109511653743756e-12  0.
-5.203614965088639e-13 7.367908618748193e-12  0.
-7.109214123001317e-13 6.3250041498292645e-12  0.
-9.681003581933396e-13 5.035983025272681e-12  0.
-2.8354616374802045e-12 5.223346495644983e-12  0.
0.0 9.780686476563912e-11  0.
-1.377525374509124e-20 9.780686477570337e-11  0.
1.9204603171720666e-21 9.780686478204797e-11  0.
-6.34220592300009e-20 9.780686474433254e-11  0.
-8.339193167277507e-19 9.780686425332123e-11  0.
-8.489138168427666e-18 9.780685883977234e-11  0.
-7.085182376275915e-17 9.780680945848766e-11  0.
-4.739279916298988e-16 9.780644663999984e-11  0.
-2.5064230349607842e-15 9.780433503161318e-11  0.
-1.0523865614085716e-14 9.779470628330116e-11  0.
-3.663304934047335e-14 9.775874842005255e-11  0.
-1.0788394189963083e-13 9.764604550937047e-11  0.
-2.758121127684834e-13 9.734166492928249e-11  0.
-6.20641691155041e-13 9.66213080881973e-11  0.
-1.2473970762551368e-12 9.510515706018351e-11  0.
-2.2591557982998492e-12 9.223709614429452e-11  0.
-3.71963492050928e-12 8.731755579211972e-11  0.
-5.600789102814618e-12 7.961559695805498e-11  0.
-7.78760345489575e-12 6.858359854277342e-11  0.
-1.0804106933139101e-11 5.485725296396578e-11  0.
-3.124835678269908e-11 5.727743803580694e-11  0.
0.0 8.835813201055266e-10  0.
-2.1095773610821688e-21 8.835813201172819e-10  0.
-2.3299079722980686e-21 8.835813201095777e-10  0.
-1.908386396713761e-19 8.835813200182797e-10  0.
-2.53562791940267e-18 8.835813186847457e-10  0.
-2.845712821894695e-17 8.835813024277862e-10  0.
-2.6570021587960014e-16 8.835811370044063e-10  0.
-2.023540634088224e-15 8.835797553369706e-10  0.
-1.234866814471308e-14 8.835704750397012e-10  0.
-5.986709100380958e-14 8.83520918101167e-10  0.
-2.3271227765265854e-13 8.833114525288894e-10  0.
-7.53495821866455e-13 8.825824606878499e-10  0.
-2.0716805990246642e-12 8.804453496274696e-10  0.
-4.953323679537283e-12 8.750371258661121e-10  0.
-1.0434886445041394e-11 8.630330379469877e-10  0.
-1.9641045272762592e-11 8.393316502050937e-10  0.
-3.33129023829675e-11 7.972776036497012e-10  0.
-5.136459429906058e-11 7.296652870450843e-10  0.
-7.276987297283396e-11 6.309153165980214e-10  0.
-1.0311036937449244e-10 5.074398275434965e-10  0.
-2.931899302267436e-10 5.341967121250794e-10  0.
0.0 6.6670385982903196e-09  0.
-3.5151187199850034e-22 6.667038598289381e-09  0.
-2.3965272749385352e-20 6.667038598274937e-09  0.
-4.798345849045448e-19 6.667038598051326e-09  0.
-6.805159737737493e-18 6.6670385948259656e-09  0.
-8.267794758137954e-17 6.667038552592435e-09  0.
-8.465680013657485e-16 6.66703808288257e-09  0.
-7.173447271759193e-15 6.667033733657775e-09  0.
-4.944135346541548e-14 6.667000770499743e-09  0.
-2.731667875889259e-13 6.666799929870037e-09  0.
-1.2052102023004466e-12 6.665823572121405e-09  0.
-4.307167113495144e-12 6.662026290738494e-09  0.
-1.2882694826768036e-11 6.649798365761456e-09  0.
-3.2852801073619284e-11 6.616495098706459e-09  0.
-7.298869315043646e-11 6.538043489564809e-09  0.
-1.4306318864188967e-10 6.37576469981714e-09  0.
-2.5067501028763826e-10 6.0770474587081355e-09  0.
-3.960828837751373e-10 5.583052618996997e-09  0.
-5.727006242245339e-10 4.846987440910832e-09  0.
-8.306266441400168e-10 3.925276607567006e-09  0.
-2.3083374615821307e-09 4.175455787762705e-09  0.
0.0 4.12429907488368e-08  0.
-5.924153851593269e-21 4.124299074883208e-08  0.
-6.163962250061075e-20 4.124299074881873e-08  0.
-1.0874777501524663e-18 4.124299074838773e-08  0.
-1.630021013858843e-17 4.124299074149572e-08  0.
-2.1170723675217997e-16 4.124299064520355e-08  0.
-2.338716964816793e-15 4.124298949354117e-08  0.
-2.163592258496284e-14 4.124297788658373e-08  0.
-1.6491346278436593e-13 4.1242880902447956e-08  0.
-1.0194044432203195e-12 4.1242219948918636e-08  0.
-5.0533711965985305e-12 4.1238601452795674e-08  0.
-2.0117528500742833e-11 4.122273821357994e-08  0.
-6.554654397769451e-11 4.116648468865605e-08  0.
-1.7958336361030251e-10 4.1000371580208634e-08  0.
-4.2141134553941145e-10 4.058361374828415e-08  0.
-8.631818130100922e-10 3.9677237342031876e-08  0.
-1.562778445513535e-09 3.794374013150842e-08  0.
-2.533297308736713e-09 3.4992865458549936e-08  0.
-3.739187518585328e-09 3.051160141888518e-08  0.
-5.566569674300882e-09 2.4931340455667077e-08  0.
-1.49881830191373e-08 2.6879217230271996e-08  0.
0.0 2.0449425611540954e-07  0.
-8.870422366943116e-21 2.0449425611541494e-07  0.
-1.2653108689703502e-19 2.0449425611536793e-07  0.
-2.2330475185111437e-18 2.0449425611459025e-07  0.
-3.523669694629949e-17 2.0449425610139123e-07  0.
-4.836343732185267e-16 2.0449425590669888e-07  0.
-5.689925555140962e-15 2.044942534337581e-07  0.
-5.658997414231512e-14 2.0449422672015215e-07  0.
-4.686446349873846e-13 2.0449398488665694e-07  0.
-3.180838707463208e-12 2.0449217973007105e-07  0.
-1.744524998314357e-11 2.0448123942815965e-07  0.
-7.675650597348027e-11 2.0442804603813524e-07  0.
-2.7291872507552653e-10 2.0422018965608777e-07  0.
-8.022928817392041e-10 2.0355590644011994e-07  0.
-1.9927253496060227e-09 2.017778005871144e-07  0.
-4.260717017333985e-09 1.9771351554665262e-07  0.
-7.970503473794105e-09 1.8964035072142235e-07  0.
-1.3229942808495472e-08 1.7552228610053853e-07  0.
-1.9932343265017015e-08 1.5376072766832084e-07  0.
-3.0509063717625314e-08 1.2719541096470065e-07  0.
-7.86287571934558e-08 1.3960462743494852e-07  0.
0.0 7.904662696754741e-07  0.
-1.0926430175740275e-20 7.904662696754743e-07  0.
-2.2609823689355093e-19 7.904662696754094e-07  0.
-4.210363436034409e-18 7.904662696741138e-07  0.
-6.921852036573142e-17 7.904662696513144e-07  0.
-9.94893627754007e-16 7.904662693000181e-07  0.
-1.23322915724624e-14 7.904662646097626e-07  0.
-1.3020138452655483e-13 7.904662109649876e-07  0.
-1.154394668860056e-12 7.904656924771774e-07  0.
-8.463640603231454e-12 7.904615217898819e-07  0.
-5.0528473002150815e-11 7.90434050905543e-07  0.
-2.4267278202925497e-10 7.90288019364299e-07  0.
-9.353447186649482e-10 7.896666279212372e-07  0.
-2.9336708708884637e-09 7.875341412919897e-07  0.
-7.679061628965986e-09 7.814864638187759e-07  0.
-1.7068522074347065e-08 7.670389697302935e-07  0.
-3.284814393865723e-08 7.374099055728698e-07  0.
-5.558527913127511e-08 6.845445790841967e-07  0.
-8.52480685820119e-08 6.027403530803126e-07  0.
-1.34195319630293e-07 5.077905890646011e-07  0.
-3.251314381046989e-07 5.710084990883642e-07  0.
0.0 2.305286796099206e-06  0.
-1.3133445059167479e-20 2.3052867960991987e-06  0.
-3.7386241490060747e-19 2.3052867960990988e-06  0.
-7.292661745277655e-18 2.3052867960971442e-06  0.
-1.2418226132021332e-16 2.3052867960617035e-06  0.
-1.8541427726088664e-15 2.3052867954955797e-06  0.
-2.3997791102075732e-14 2.305286787618228e-06  0.
-2.6612360357990843e-13 2.3052866931841976e-06  0.
-2.4951988439515765e-12 2.3052857301877807e-06  0.
-1.948816449811732e-11 2.3052774971965686e-06  0.
-1.2478713898194203e-10 2.3052194319860758e-06  0.
-6.45389630802804e-10 2.3048871453315677e-06  0.
-2.6705542063995375e-09 2.3033649331942776e-06  0.
-8.87305129154677e-09 2.297803676900101e-06  0.
-2.4174013248856714e-08 2.2813648173586025e-06  0.
-5.540102753328748e-08 2.2408738307320353e-06  0.
-1.0847990955229009e-07 2.1564549542907444e-06  0.
-1.8567521646484892e-07 2.0052038141965438e-06  0.
-2.878996112355214e-07 1.7761335940028686e-06  0.
-4.6455114408161685e-07 1.5408482418931457e-06  0.
-1.0299434183506816e-06 1.7907400094099382e-06  0.
0.0 4.922924774704301e-06  0.
-2.6770887611638045e-20 4.922924774704281e-06  0.
-5.828870019823499e-19 4.922924774704156e-06  0.
-1.1642359531648717e-17 4.922924774701523e-06  0.
-2.0402253446152226e-16 4.922924774652207e-06  0.
-3.1431086330957124e-15 4.922924773840471e-06  0.
-4.214580490007651e-14 4.922924762154242e-06  0.
-4.864897632299162e-13 4.922924616552638e-06  0.
-4.773491013475339e-12 4.9229230653441385e-06  0.
-3.92450879639563e-11 4.92290913009376e-06  0.
-2.6605753368565394e-10 4.92280523101269e-06  0.
-1.462783335621244e-09 4.92217351964001e-06  0.
-6.42946403346212e-09 4.919095300512772e-06  0.
-2.2460675346646828e-08 4.907224208196437e-06  0.
-6.307821215717701e-08 4.870931984371235e-06  0.
-1.46500695155221e-07 4.780926465335474e-06  0.
-2.880941268626368e-07 4.594488055722514e-06  0.
-4.90922861125582e-07 4.269710858806249e-06  0.
-7.634401456989072e-07 3.813492064760461e-06  0.
-1.2455029474585764e-06 3.476943573509972e-06  0.
-2.4347488995297363e-06 4.212572431489894e-06  0.
0.0 7.736455151971802e-06  0.
-4.168238362441373e-20 7.736455151971793e-06  0.
-8.411522754568328e-19 7.73645515197164e-06  0.
-1.7182374110641464e-17 7.736455151968432e-06  0.
-3.0805064589647655e-16 7.73645515190721e-06  0.
-4.868013789763227e-15 7.736455150873974e-06  0.
-6.716625886876292e-14 7.736455135582207e-06  0.
-8.007023416669809e-13 7.736454939022862e-06  0.
-8.148090730963033e-12 7.736452769900877e-06  0.
-6.979751720291967e-11 7.736432491978307e-06  0.
-4.953293030674176e-10 7.736274411675803e-06  0.
-2.861422546978748e-09 7.735264993038966e-06  0.
-1.3219721938473048e-08 7.730089578808894e-06  0.
-4.819629261819877e-08 7.709186613055844e-06  0.
-1.3864881923724582e-07 7.6434464737332e-06  0.
-3.218893990622069e-07 7.48106933741244e-06  0.
-6.251072972960059e-07 7.1561554506693095e-06  0.
-1.0439747790750674e-06 6.630104101290669e-06  0.
-1.610577439823274e-06 6.017937500822872e-06  0.
-2.5867429383256938e-06 5.9488701613362284e-06  0.
-4.275935234208614e-06 7.466349849357304e-06  0.
0.0 9.91291458144419e-06  0.
-4.974570821526763e-20 9.912914581444201e-06  0.
-1.14417337145217e-18 9.91291458144405e-06  0.
-2.3537870395317013e-17 9.912914581440547e-06  0.
-4.2968109949862807e-16 9.91291458137276e-06  0.
-6.928048156992127e-15 9.912914580206655e-06  0.
-9.776853268698116e-14 9.912914562570631e-06  0.
-1.1954595574626938e-12 9.912914330300884e-06  0.
-1.2518080653193291e-11 9.912911695682593e-06  0.
-1.107373799536339e-10 9.912886291884014e-06  0.
-8.145770248270638e-10 9.912681221876095e-06  0.
-4.893000515317883e-09 9.9113204513317e-06  0.
-2.352969417614194e-08 9.904052707761128e-06  0.
-8.888580378370878e-08 9.873540487397007e-06  0.
-2.609100429886469e-07 9.775089770892263e-06  0.
-6.016749867757225e-07 9.533645816378426e-06  0.
-1.136941672940113e-06 9.077805104402281e-06  0.
-1.8531683869235372e-06 8.420686176056761e-06  0.
-2.797393202168292e-06 7.927581170061214e-06  0.
-4.278490865325732e-06 8.596429991680529e-06  0.
-5.903724042339361e-06 1.0584247684063012e-05  0.
0.0 1.2229532113364492e-05  0.
-6.041085605992234e-20 1.2229532113364479e-05  0.
-1.4439622799031856e-18 1.222953211336432e-05  0.
-3.00137844048171e-17 1.2229532113360997e-05  0.
-5.554548552944113e-16 1.2229532113295567e-05  0.
-9.093681385047085e-15 1.2229532112153391e-05  0.
-1.305400023229087e-13 1.2229532094594855e-05  0.
-1.6270697520793738e-12 1.2229531859058554e-05  0.
-1.7409182945587967e-11 1.2229529131688032e-05  0.
-1.5778596573866274e-10 1.2229502212340141e-05  0.
-1.1925195733856824e-09 1.2229279152980634e-05  0.
-7.3787078367962815e-09 1.2227755139421632e-05  0.
-3.659615283473827e-08 1.221935648915876e-05  0.
-1.42235006863223e-07 1.2182981386714884e-05  0.
-4.249536665327792e-07 1.2062804460120528e-05  0.
-9.736456893173556e-07 1.1769335449005286e-05  0.
-1.7794020232814738e-06 1.1253893104095584e-05  0.
-2.8259920752923486e-06 1.0650010075275266e-05  0.
-4.168409015589974e-06 1.0543531352574865e-05  0.
-5.847497742013369e-06 1.1755765631037106e-05  0.
-7.223322030396607e-06 1.3141110900895672e-05  0.
0.0 1.4741386200850654e-05  0.
-7.112444101462952e-20 1.474138620085064e-05  0.
-1.703278973550102e-18 1.4741386200850535e-05  0.
-3.565881274307458e-17 1.474138620084792e-05  0.
-6.663141084190864e-16 1.4741386200795873e-05  0.
-1.1025883878041827e-14 1.4741386199878255e-05  0.
-1.6017932251260425e-13 1.4741386185606102e-05  0.
-2.0234248076251102e-12 1.4741385991646118e-05  0.
-2.1978451143003245e-11 1.474138371250837e-05  0.
-2.0259673943297457e-10 1.4741360844538908e-05  0.
-1.5604030921469541e-09 1.474116779960267e-05  0.
-9.85768924598533e-09 1.4739821398202675e-05  0.
-4.9975629441217835e-08 1.4732231284757126e-05  0.
-1.983457345547399e-07 1.4698580284512543e-05  0.
-6.013089787990097e-07 1.458519119124231e-05  0.
-1.3744323981640607e-06 1.4307739895139379e-05  0.
-2.4389130038069106e-06 1.3854508280553226e-05  0.
-3.7353909713557096e-06 1.3491061976943204e-05  0.
-5.366202414703089e-06 1.3761582739916212e-05  0.
-6.850349157796426e-06 1.4683566895113922e-05  0.
-8.255264489962104e-06 1.5038689352258033e-05  0.
0.0 1.7039160092563783e-05  0.
-8.093587618967813e-20 1.7039160092563786e-05  0.
-1.8743991071872878e-18 1.7039160092563705e-05  0.
-3.951415405821485e-17 1.7039160092562268e-05  0.
-7.428143533065804e-16 1.703916009253331e-05  0.
-1.2369688818259461e-14 1.7039160092019384e-05  0.
-1.8097790385350798e-13 1.703916008397281e-05  0.
-2.3043513969137968e-12 1.703915997379478e-05  0.
-2.5253659393805696e-11 1.7039158668219176e-05  0.
-2.3512555047670783e-10 1.703914544272795e-05  0.
-1.8312934633407717e-09 1.7039032598515972e-05  0.
-1.171244548820106e-08 1.703823593576087e-05  0.
-6.016433402211845e-08 1.703368462831031e-05  0.
-2.418867315652649e-07 1.7013214423895077e-05  0.
-7.406747843998229e-07 1.694328241883359e-05  0.
-1.694502636561873e-06 1.67716651322191e-05  0.
-2.9489899369711232e-06 1.6506404678759992e-05  0.
-4.321596999834335e-06 1.6382776866443893e-05  0.
-5.970894497394966e-06 1.670296409616001e-05  0.
-7.423211687715085e-06 1.6995436978800315e-05  0.
-8.66371114300544e-06 1.6986365020755714e-05  0.
0.0 1.945000000000001e-05  0.
-8.567715231955296e-20 1.945000000000001e-05  0.
-1.938775817163193e-18 1.945000000000001e-05  0.
-4.089530178310518e-17 1.945000000000001e-05  0.
-7.701512621671633e-16 1.945000000000001e-05  0.
-1.2852199298712145e-14 1.945000000000001e-05  0.
-1.8847800034990525e-13 1.945000000000001e-05  0.
-2.40614891293699e-12 1.945000000000001e-05  0.
-2.6446944037045035e-11 1.945000000000001e-05  0.
-2.470507481045686e-10 1.945000000000001e-05  0.
-1.9312926806265233e-09 1.945000000000001e-05  0.
-1.2402581648736167e-08 1.945000000000001e-05  0.
-6.398883414032372e-08 1.945000000000001e-05  0.
-2.583927172636816e-07 1.945000000000001e-05  0.
-7.940970747406855e-07 1.945000000000001e-05  0.
-1.8183294224195174e-06 1.945000000000001e-05  0.
-3.143402624968259e-06 1.945000000000001e-05  0.
-4.506528486830478e-06 1.945000000000001e-05  0.
-6.084170993051509e-06 1.945000000000001e-05  0.
-7.676444962833088e-06 1.945000000000001e-05  0.
-8.67773221760796e-06 1.945000000000001e-05  0.
</DataArray>
<DataArray type="Float64" Name="sigma_xx" NumberOfComponents="1" format="ascii" >
4.352074256530612e-05 
4.352074256530612e-05 
4.352074256530612e-05 
4.352074256530612e-05 
4.352074256530612e-05 
4.352074256530612e-05 
4.352074256530612e-05 
4.352074256530612e-05 
4.352074256530612e-05 
4.33653113418586e-05 
4.305444889496356e-05 
4.2754688678314765e-05 
4.244382623141972e-05 
4.152234112098084e-05 
4.0134562340199395e-05 
3.826938765882913e-05 
3.503863865716993e-05 
3.13082892944294e-05 
2.6190161150907433e-05 
1.7952306308188774e-05 
1.310063169057684e-05 
0.0004861888669438484 
0.00048618886694384834 
0.00048618886694384834 
0.00048618886694384834 
0.00048618886694384834 
0.00048618886694384834 
0.00048618886694384834 
0.00048603898683552394 
0.0004857281243886289 
0.00048496207050163754 
0.0004835132294545017 
0.00048091530757687884 
0.00047615800191636005 
0.0004676870002384701 
0.00045356496336523816 
0.0004316824675498764 
0.00039985237343387315 
0.00035692560018674147 
0.0003004541060391829 
0.00021214141554537483 
0.0001559752327295882 
0.008935119311104241 
0.008935119311104241 
0.008935119311104241 
0.008935119311104241 
0.008935119311104241 
0.00893504714660764 
0.008934825102002716 
0.008933698225632721 
0.008930284289831999 
0.008921696714736523 
0.008902206749539229 
0.008861322786657407 
0.008781064764207255 
0.008635675508017467 
0.008390965700044713 
0.008005340834671412 
0.00743667349922816 
0.006648676054155088 
0.005608141728785652 
0.00396849220152262 
0.0029164559656180682 
0.14507375301064934 
0.14507375301064934 
0.14507375301064934 
0.14507375301064934 
0.14507360313054102 
0.14507278711661792 
0.14506936207858695 
0.14505698309186238 
0.1450186748463977 
0.14491376432168573 
0.14465665887364304 
0.14408637061258384 
0.1429291796029019 
0.14076854681910328 
0.13703450041369075 
0.13103157447957864 
0.12202080457157644 
0.10934648742022543 
0.09240528342502327 
0.06537258512295804 
0.0479558170951577 
2.0663763589112696 
2.0663763589112696 
2.0663763589112696 
2.066376286746773 
2.066375248688245 
2.06636939226179 
2.066340898387863 
2.0662266619897443 
2.065841270271206 
2.064708598537023 
2.061765669303383 
2.0549078272313883 
2.040426316796128 
2.012467215095625 
1.9627838798719202 
1.8810590474149782 
1.7560637666225172 
1.5775370787451943 
1.335685456682611 
0.9443679560572344 
0.6910987560004851 
25.56995171154596 
25.56995163383035 
25.56995163383035 
25.56995120084337 
25.569946199288644 
25.569912331935278 
25.569720868423566 
25.568856215629758 
25.565616379452642 
25.555291149892405 
25.526601243885942 
25.456038882376568 
25.30021418478689 
24.988204255782513 
24.416809085714412 
23.453571340592553 
21.95055410214585 
19.76882103571497 
16.77025838753287 
11.844575270592012 
8.64105075271126 
271.7839084898087 
271.7839084120931 
271.783908262213 
271.7839062915671 
271.78388657955736 
271.7837287724566 
271.78269991212636 
271.7773431137881 
271.75489421549224 
271.6762411647532 
271.44095910425204 
270.82582991777565 
269.39981070950296 
266.42809498600417 
260.80852454368744 
251.08429911602212 
235.58975888460225 
212.71427584346185 
180.7855978586125 
127.46960026954739 
92.61046714503779 
2448.3139338782316 
2448.3139338782316 
2448.313933367529 
2448.313926944889 
2448.313859410022 
2448.313247943589 
2448.3087363080795 
2448.2819401927527 
2448.1542943655113 
2447.6599819911453 
2446.050973770041 
2441.55959992498 
2430.5724940693044 
2406.6904814712398 
2359.9592508638516 
2276.888494009976 
2141.642003328225 
1938.512518276369 
1650.3380260213248 
1160.5548025983564 
838.5567775770481 
18393.944237993222 
18393.944237915508 
18393.94423653883 
18393.944218925146 
18393.944014744025 
18393.941991612366 
18393.925443349606 
18393.8152270191 
18393.223900109442 
18390.665758305495 
18381.581711846004 
18354.319623117837 
18283.816516817533 
18123.54833289897 
17798.994303536147 
17206.204134279087 
16220.824982321465 
14716.0628539672 
12545.307120684352 
8786.320804562984 
6300.465667319341 
113009.78744575026 
113009.78744560038 
113009.78744255836 
113009.78739881003 
113009.78685256364 
113009.78102618537 
113009.72909475956 
113009.3481720495 
113007.0797443094 
112996.1933021117 
112953.8265960461 
112817.1917200604 
112442.73897678954 
111553.72313665086 
109692.08000182192 
106207.66107635456 
100308.47798986327 
91172.08236298632 
77775.5633197513 
54130.303704894 
38403.79120872982 
553994.179169681 
553994.1791694701 
553994.179163103 
553994.1790647593 
553994.1777599864 
553994.1629362886 
553994.0209872527 
553992.8921721724 
553985.546913671 
553946.896932561 
553782.9685085341 
553215.8118086797 
551575.1279274698 
547520.2462282529 
538788.7145530843 
522137.82000249106 
493618.0706520297 
449079.05022507894 
382857.9791589513 
263851.953194713 
184278.63305108808 
2098861.2206881857 
2098861.220687614 
2098861.220674796 
2098861.2204728522 
2098861.217660391 
2098861.183962929 
2098860.841340782 
2098857.9266307363 
2098837.4936314635 
2098721.141531511 
2098188.1405961514 
2096220.517764432 
2090260.7471034916 
2075054.9302051715 
2041743.9822667325 
1977789.5510847457 
1868428.2082468495 
1698295.2592329842 
1443389.7445106641 
978998.9312804054 
667319.3529559359 
5889605.636352766 
5889605.636351611 
5889605.636328381 
5889605.635948351 
5889605.630439602 
5889605.5614429265 
5889604.8239315245 
5889598.187790854 
5889548.684917074 
5889247.388407322 
5887772.068556997 
5882001.172527624 
5863830.9027792495 
5816660.743680226 
5713082.880838145 
5517044.524449963 
5189831.161589678 
4694659.195204116 
3957086.0105515537 
2611062.2909293966 
1708639.4372476044 
11596494.601560622 
11596494.601558745 
11596494.601520214 
11596494.600863025 
11596494.591016516 
11596494.463055406 
11596493.037370415 
11596479.600029362 
11596374.082274068 
11595695.276752839 
11592178.881580727 
11577715.62111501 
11530666.981798781 
11407853.567866474 
11143101.916977024 
10661633.680619882 
9905153.084436147 
8834280.987064341 
7292791.087563225 
4561903.681150684 
2754101.029516685 
15248621.74540152 
15248621.745398706 
15248621.74533888 
15248621.744291281 
15248621.728165641 
15248621.51212063 
15248619.021643218 
15248594.639371373 
15248394.954810891 
15247050.563044379 
15239752.40867371 
15208425.869241863 
15103662.907590626 
14830751.934043186 
14264426.08488792 
13301193.59074359 
11937999.233950876 
10227530.023846965 
7965387.354984388 
4391078.912347015 
2141388.4434041493 
14007399.659600833 
14007399.659596788 
14007399.659510352 
14007399.657965846 
14007399.633651398 
14007399.29971632 
14007395.342402492 
14007355.389075797 
14007016.860226164 
14004651.951276079 
13991311.925754344 
13931968.872953225 
13728727.17261597 
13201929.010704314 
12164174.57574708 
10562682.112268884 
8590562.158036346 
6525247.114211335 
4147228.427303009 
1446657.3840756833 
95549.73359340569 
12608905.830723379 
12608905.830717888 
12608905.830601476 
12608905.828486767 
12608905.7945976 
12608905.31991199 
12608899.570086002 
12608840.089079848 
12608322.3560497 
12604598.11987858 
12582936.509247104 
12483727.833551541 
12136984.04776803 
11242462.108933585 
9579230.346205287 
7324739.458838172 
4985526.8217676915 
3000610.6087816814 
1035785.2945099471 
-146272.4451708889 
-229053.46637071762 
13552413.692026172 
13552413.692019166 
13552413.691872578 
13552413.689178055 
13552413.645408716 
13552413.02309771 
13552405.358877867 
13552324.598578926 
13551607.18197278 
13546330.71903344 
13514914.767201848 
13367746.30624998 
12844835.569711834 
11500033.018030593 
9131583.278892448 
6385149.513655354 
4113988.3699540994 
2410893.945574907 
1001720.7784115549 
79835.94548787456 
-185070.07482161094 
13499408.034037348 
13499408.034029188 
13499408.033856532 
13499408.03065617 
13499407.978175653 
13499407.224142347 
13499397.828967774 
13499297.542911045 
13498393.881629404 
13491643.43281152 
13450784.441499429 
13256273.169968776 
12556631.605123501 
10759580.976365326 
7726600.568487965 
4733532.497955129 
2963543.4884960866 
1440390.5885605388 
326093.78339751903 
-575213.6891456589 
-1332475.636796318 
13215175.996584412 
13215175.99657569 
13215175.99638547 
13215175.99283833 
13215175.93434738 
13215175.088714577 
13215164.479290593 