<?xml version="1.0"?>
<VTKFile type="UnstructuredGrid" version="0.1" byte_order="LittleEndian" compressor="vtkZLibDataCompressor">
<UnstructuredGrid>
<Piece NumberOfPoints="441" NumberOfCells="400">
<PointData>
<DataArray type="Float64" Name="displacement" NumberOfComponents="3" format="ascii" >
0.0 8.910960922134749e-10  0.
-4.45324937793293e-16 8.910957705696188e-10  0.
-1.758597669855065e-15 8.910941644257137e-10  0.
-5.988551084267608e-15 8.910884570768215e-10  0.
-1.8506367756934883e-14 8.910702307569532e-10  0.
-5.231151195120025e-14 8.910170689244388e-10  0.
-1.3598841276919791e-13 8.908746159725078e-10  0.
-3.266975928584622e-13 8.90522203211037e-10  0.
-7.284956401696887e-13 8.897137259891395e-10  0.
-1.513708805430722e-12 8.879868874570292e-10  0.
-2.941020061539278e-12 8.845406329224638e-10  0.
-5.359543910874217e-12 8.780940998575311e-10  0.
-9.185587585060013e-12 8.667596219814609e-10  0.
-1.484117311180614e-11 8.479818963929254e-10  0.
-2.2652375453973033e-11 8.186061446040529e-10  0.
-3.272122704229777e-11 7.751293387325352e-10  0.
-4.4803942140731854e-11 7.141547434326449e-10  0.
-5.826245144536127e-11 6.330304441958955e-10  0.
-7.235558240090904e-11 5.310867972179961e-10  0.
-9.116924985068773e-11 4.177388171158524e-10  0.
-1.884295973404627e-10 4.2540351427668974e-10  0.
0.0 2.625312208062099e-09  0.
-9.809619607505782e-16 2.6253115964518344e-09  0.
-4.029473230391858e-15 2.6253084142433328e-09  0.
-1.4288526484818938e-14 2.6252965242607914e-09  0.
-4.584773009157591e-14 2.6252567168637525e-09  0.
-1.3411283524677412e-13 2.625135543161087e-09  0.
-3.5958962475278707e-13 2.624798184437609e-09  0.
-8.881750227219679e-13 2.623934656788774e-09  0.
-2.0301428226227125e-12 2.6218927661449194e-09  0.
-4.312003583259161e-12 2.617413215175728e-09  0.
-8.541947639892635e-12 2.6082602129334907e-09  0.
-1.583379579779827e-11 2.590781118789105e-09  0.
-2.7544017457116965e-11 2.5594891985916605e-09  0.
-4.508156021734778e-11 2.5068291428258835e-09  0.
-6.957916608961605e-11 2.4233259345707883e-09  0.
-1.0146656603660788e-10 2.298299194545071e-09  0.
-1.4005362079423015e-10 2.121228944855347e-09  0.
-1.833857551779364e-10 1.8837960183402614e-09  0.
-2.3016431306753486e-10 1.5841248544613422e-09  0.
-3.0437994802274864e-10 1.2595499453559585e-09  0.
-7.291612203346506e-10 1.33774700296085e-09  0.
0.0 1.2890179822705976e-08  0.
-3.638751350464319e-15 1.2890177761817759e-08  0.
-1.558445979034126e-14 1.289016665682053e-08  0.
-5.765217029127066e-14 1.2890123359036358e-08  0.
-1.923483046190134e-13 1.2889972428879098e-08  0.
-5.828502274741498e-13 1.2889495781398566e-08  0.
-1.6129301058272373e-12 1.2888124054289603e-08  0.
-4.097450073367726e-12 1.2884507440017293e-08  0.
-9.601477653747418e-12 1.2875728125889046e-08  0.
-2.084425825822786e-11 1.2856016643193566e-08  0.
-4.208933022292554e-11 1.2814914188101665e-08  0.
-7.93282521063578e-11 1.2735020390181842e-08  0.
-1.3999819637774345e-10 1.258977826694504e-08  0.
-2.3199011385543857e-10 1.2342100987358028e-08  0.
-3.618607966047668e-10 1.1944883527580094e-08  0.
-5.32451326645331e-10 1.1344379958246612e-08  0.
-7.405101339975934e-10 1.0486971116353141e-08  0.
-9.758291294084627e-10 9.329683861458656e-09  0.
-1.2321117742400102e-09 7.864147311732911e-09  0.
-1.6416112011472477e-09 6.287619718926583e-09  0.
-3.8954805875436795e-09 6.782297238226839e-09  0.
0.0 5.640155541713076e-08  0.
-1.2144530299924712e-14 5.640154897088321e-08  0.
-5.40874878037895e-14 5.640151305984543e-08  0.
-2.0814144533491643e-13 5.6401367337233414e-08  0.
-7.201033248252025e-13 5.640083992536258e-08  0.
-2.254553771393871e-12 5.639911680596481e-08  0.
-6.423127393364484e-12 5.639400574456577e-08  0.
-1.6740844787600933e-11 5.6380166423256493e-08  0.
-4.0117583899737116e-11 5.63457805378633e-08  0.
-8.88041235179208e-11 5.626700323655334e-08  0.
-1.823469968091075e-10 5.6099861432528505e-08  0.
-3.4864417230615485e-10 5.577012977793014e-08  0.
-6.228222736342296e-10 5.516313811430226e-08  0.
-1.0427251124413927e-09 5.4117098343297436e-08  0.
-1.6405085068577831e-09 5.242468878493388e-08  0.
-2.431296361642807e-09 4.9847409955170154e-08  0.
-3.40179466663949e-09 4.614533033545815e-08  0.
-4.507065127510232e-09 4.112541904198502e-08  0.
-5.730754476208842e-09 3.476413754704369e-08  0.
-7.745621963420567e-09 2.8064371452847016e-08  0.
-1.7776528358187866e-08 3.0676823988837794e-08  0.
0.0 2.120343034367964e-07  0.
-3.6933523802274807e-14 2.120342850857606e-07  0.
-1.7061929432021505e-13 2.120341796293194e-07  0.
-6.811529122197316e-13 2.120337356171088e-07  0.
-2.437030244467933e-12 2.1203207239034e-07  0.
-7.861303198212148e-12 2.1202646952739207e-07  0.
-2.298883459830056e-11 2.120094012540359e-07  0.
-6.12791918712911e-11 2.1196211784260503e-07  0.
-1.4968562988277845e-10 2.118423509193341e-07  0.
-3.3671094128247894e-10 2.1156354732571617e-07  0.
-7.006655579025965e-10 2.109642402023889e-07  0.
-1.3543303099862874e-09 2.097695307931471e-07  0.
-2.4407151899937996e-09 2.0755215314988037e-07  0.
-4.114785083532042e-09 2.037069125500117e-07  0.
-6.50926545639639e-09 1.9745646370275126e-07  0.
-9.688509435094235e-09 1.879052996435852e-07  0.
-1.3603367816422367e-08 1.7415198985783208e-07  0.
-1.808618466556308e-08 1.5548044976520004e-07  0.
-2.3148806226268803e-08 1.3191355188022196e-07  0.
-3.176356016393385e-08 1.0791913910308055e-07  0.
-7.002297304092702e-08 1.1989661056801632e-07  0.
0.0 6.745443965545511e-07  0.
-1.0291481405273972e-13 6.745443488620982e-07  0.
-4.918045375734146e-13 6.745440667939616e-07  0.
-2.0309334252129385e-12 6.745428383310783e-07  0.
-7.49233757133856e-12 6.745380908229874e-07  0.
-2.4823633592029147e-11 6.745216571109314e-07  0.
-7.425681460366228e-11 6.744704378590312e-07  0.
-2.0167853761184595e-10 6.74325897389302e-07  0.
-5.00088241451738e-10 6.739544723578535e-07  0.
-1.138117102224126e-09 6.730805783686549e-07  0.
-2.3889602978711325e-09 6.711883233587628e-07  0.
-4.645872744486554e-09 6.67399601381428e-07  0.
-8.405258471123235e-09 6.603544759835916e-07  0.
-1.4200309782534555e-08 6.481390494139168e-07  0.
-2.248063290127715e-08 6.283165877312789e-07  0.
-3.345562585629669e-08 5.981096665337843e-07  0.
-4.69519250158476e-08 5.547610165993912e-07  0.
-6.24523813034728e-08 4.961817066039513e-07  0.
-8.039060595755014e-08 4.2313219809382455e-07  0.
-1.1207627016378436e-07 3.52873886422312e-07  0.
-2.352894637107922e-07 3.999913263748481e-07  0.
0.0 1.7848288639905966e-06  0.
-2.636537179281452e-13 1.7848287505835379e-06  0.
-1.299684601823967e-12 1.7848280619049307e-06  0.
-5.535361547053062e-12 1.7848249688400282e-06  0.
-2.099400684281451e-11 1.7848126749290995e-06  0.
-7.121800652893424e-11 1.7847690919223124e-06  0.
-2.1715299681780506e-10 1.7846306512944934e-06  0.
-5.984836670189858e-10 1.7842344728774248e-06  0.
-1.4995206241259604e-09 1.783207123375474e-06  0.
-3.434913566468647e-09 1.7807790365242642e-06  0.
-7.231877664946759e-09 1.7755196660620784e-06  0.
-1.4064346290405414e-08 1.765024380715105e-06  0.
-2.5381799277607356e-08 1.7456350086976782e-06  0.
-4.269068622841792e-08 1.712320092523749e-06  0.
-6.719027839513745e-08 1.6588498531856338e-06  0.
-9.934044592890523e-08 1.578353917598999e-06  0.
-1.3853769914871057e-07 1.4643049977186633e-06  0.
-1.835320147525639e-07 1.3124098496137639e-06  0.
-2.3729358280611432e-07 1.1280627455661262e-06  0.
-3.362588857162861e-07 9.681960337032097e-07  0.
-6.650651895150843e-07 1.1247625507618798e-06  0.
0.0 3.855296538685868e-06  0.
-6.222013128595979e-13 3.855296291963784e-06  0.
-3.1549947058606473e-12 3.855294757211376e-06  0.
-1.3817771299404491e-11 3.855287669834202e-06  0.
-5.372334626776731e-11 3.855258783927897e-06  0.
-1.8602815878765395e-10 3.855154240588624e-06  0.
-5.761598332122513e-10 3.854817038811192e-06  0.
-1.6047606213816996e-09 3.85384285234838e-06  0.
-4.043348911270001e-09 3.851307377563201e-06  0.
-9.270803509173146e-09 3.84532697603535e-06  0.
-1.945550639555488e-08 3.832467766362734e-06  0.
-3.757395868781217e-08 3.8071193705363346e-06  0.
-6.712885176938374e-08 3.7610634608262886e-06  0.
-1.1149494151199818e-07 3.6835327940377024e-06  0.
-1.7299005488851594e-07 3.561986024419845e-06  0.
-2.5194226879049195e-07 3.3836376452352983e-06  0.
-3.4635722523056997e-07 3.1377378454959297e-06  0.
-4.54209446774095e-07 2.820468139580049e-06  0.
-5.88946603283204e-07 2.456883971764888e-06  0.
-8.476030061559096e-07 2.203904378322163e-06  0.
-1.5586188645126167e-06 2.6343138170236347e-06  0.
0.0 6.710341423449826e-06  0.
-1.3549633706242647e-12 6.710340932320801e-06  0.
-7.047632274671377e-12 6.710337810014639e-06  0.
-3.164920311238007e-11 6.710323027398805e-06  0.
-1.2579155314512757e-10 6.710261421940492e-06  0.
-4.4333425857519764e-10 6.710034469308227e-06  0.
-1.3901123311255473e-09 6.709293668743657e-06  0.
-3.897406228906456e-09 6.7071421798810095e-06  0.
-9.828169663972813e-09 6.7015519303914e-06  0.
-2.2429973233641797e-08 6.6884786579407906e-06  0.
-4.661472140092712e-08 6.660794493751761e-06  0.
-8.874583105596136e-08 6.607393732139162e-06  0.
-1.5567294220309597e-07 6.5130280577050285e-06  0.
-2.530328447242261e-07 6.359395837229097e-06  0.
-3.8327172300705866e-07 6.127655174746259e-06  0.
-5.442974065843091e-07 5.8019730380191806e-06  0.
-7.303945372196177e-07 5.3741355013745045e-06  0.
-9.412082188241913e-07 4.855494523326885e-06  0.
-1.2220471398173397e-06 4.331995484000249e-06  0.
-1.7790357000413684e-06 4.154428359036311e-06  0.
-2.9963285699753637e-06 5.106395752947414e-06  0.
0.0 9.514343848771073e-06  0.
-2.7331182779530665e-12 9.514342950118324e-06  0.
-1.4543035267098093e-11 9.514337124448712e-06  0.
-6.678257452514899e-11 9.514308923412236e-06  0.
-2.706311260844502e-10 9.514189068876983e-06  0.
-9.68216285966751e-10 9.513740806562698e-06  0.
-3.0644283277267196e-09 9.51226449596718e-06  0.
-8.616833205319248e-09 9.507970517542707e-06  0.
-2.164973073053225e-08 9.496886938191262e-06  0.
-4.891379597074801e-08 9.471349908748079e-06  0.
-1.0002939110402245e-07 9.418507126906219e-06  0.
-1.863705452872628e-07 9.319700650329774e-06  0.
-3.183835932933295e-07 9.151768844718913e-06  0.
-5.019355019918898e-07 8.890816035197465e-06  0.
-7.350695285903459e-07 8.517965044938911e-06  0.
-1.0075583589929069e-06 8.02575106758001e-06  0.
-1.3068895360132189e-06 7.426564675807947e-06  0.
-1.64446718496156e-06 6.781303171008525e-06  0.
-2.136697937006968e-06 6.313350996578018e-06  0.
-3.1128403147491125e-06 6.62820704072564e-06  0.
-4.741890548234881e-06 8.261992984967988e-06  0.
0.0 1.1692445034444706e-05  0.
-5.136501972912561e-12 1.169244351073244e-05  0.
-2.789166740581486e-11 1.1692433459758695e-05  0.
-1.3064458531190314e-10 1.1692383837555418e-05  0.
-5.385468357919425e-10 1.1692169271491422e-05  0.
-1.951423215831206e-09 1.1691356388442138e-05  0.
-6.218805754148887e-09 1.1688661708136524e-05  0.
-1.7483506001890737e-08 1.1680836574889828e-05  0.
-4.3591068207680195e-08 1.1660857644800276e-05  0.
-9.701418855151979e-08 1.1615766132769447e-05  0.
-1.9407175367868454e-07 1.1525258183724837e-05  0.
-3.5147536211656193e-07 1.1362687670958348e-05  0.
-5.804764570046962e-07 1.109972331272227e-05  0.
-8.807035559358472e-07 1.0714364205585115e-05  0.
-1.2373602561408686e-06 1.0199727988290679e-05  0.
-1.6251530652387464e-06 9.571978545515404e-06  0.
-2.0276866181500833e-06 8.88505435184097e-06  0.
-2.4934413200232257e-06 8.294907217039155e-06  0.
-3.2497667720304804e-06 8.238381615167748e-06  0.
-4.6435978435074335e-06 9.4392095717111e-06  0.
-6.393966958423205e-06 1.1517364153571975e-05  0.
0.0 1.3824801017770653e-05  0.
-9.033941663929299e-12 1.382479861743893e-05  0.
-4.994844598914019e-11 1.3824782537104935e-05  0.
-2.381134560845151e-10 1.3824701750032245e-05  0.
-9.96467398646182e-10 1.382434706732389e-05  0.
-3.6502988939029536e-09 1.3822988403859887e-05  0.
-1.169063699866139e-08 1.3818463141350053e-05  0.
-3.278309633724557e-08 1.3805373251193178e-05  0.
-8.084756704062189e-08 1.377242902906264e-05  0.
-1.7648747058170726e-07 1.3699964551819594e-05  0.
-3.43603081594297e-07 1.3559821688248389e-05  0.
-6.014386748609969e-07 1.3319981389661615e-05  0.
-9.546688413147868e-07 1.2954208045227437e-05  0.
-1.3866612767033079e-06 1.245333987545445e-05  0.
-1.862269053866426e-06 1.1833095084366945e-05  0.
-2.3438969089368946e-06 1.1139030488549693e-05  0.
-2.8331692349156547e-06 1.0475806458762387e-05  0.
-3.460091322596574e-06 1.0127142481388353e-05  0.
-4.547211494687872e-06 1.0716683864118375e-05  0.
-6.216825816341507e-06 1.2634971551799569e-05  0.
-7.87952842508432e-06 1.4497692729357187e-05  0.
0.0 1.6423522517518126e-05  0.
-1.4887567079819634e-11 1.6423519021139074e-05  0.
-8.363248915765854e-11 1.6423495274523005e-05  0.
-4.049189088691398e-10 1.6423374116576784e-05  0.
-1.7170713525492263e-09 1.6422835002754033e-05  0.
-6.348946715324733e-09 1.6420750031353647e-05  0.
-2.040454089787031e-08 1.6413782140658267e-05  0.
-5.6973910609626945e-08 1.6393737214492442e-05  0.
-1.386324578956023e-07 1.6344138463995754e-05  0.
-2.9582069649373513e-07 1.6238274158014032e-05  0.
-5.582250972603756e-07 1.604221726263017e-05  0.
-9.404233130936792e-07 1.5724835081579578e-05  0.
-1.4297402960601037e-06 1.5271618512592868e-05  0.
-1.985980718781685e-06 1.4693701288995592e-05  0.
-2.5575469678030854e-06 1.402766660856621e-05  0.
-3.1198546765432013e-06 1.3339092810087742e-05  0.
-3.736833768719824e-06 1.2789562643857168e-05  0.
-4.6546430102973215e-06 1.2804750868314004e-05  0.
-6.153247848899004e-06 1.3985190248392614e-05  0.
-7.922513725163154e-06 1.5888486322030916e-05  0.
-9.447724542422601e-06 1.711104070460223e-05  0.
0.0 1.8838295447148725e-05  0.
-2.3021931373638063e-11 1.88382907432458e-05  0.
-1.3112514582227303e-10 1.8838258412300928e-05  0.
-6.434457618889056e-10 1.8838091235539534e-05  0.
-2.7598442284153923e-09 1.883733868174127e-05  0.
-1.0284849346595439e-08 1.883440468158286e-05  0.
-3.312872752690759e-08 1.882457746810341e-05  0.
-9.199050452890776e-08 1.8796493778652624e-05  0.
-2.204548592279226e-07 1.8728301747921044e-05  0.
-4.585974901777866e-07 1.858757306655556e-05  0.
-8.361327808632551e-07 1.8339378506949777e-05  0.
-1.3523507370775189e-06 1.7961518265473577e-05  0.
-1.9685450725307194e-06 1.7457600619184097e-05  0.
-2.6262266275903367e-06 1.6855158076290532e-05  0.
-3.282983612790695e-06 1.6193797001441175e-05  0.
-3.966705022677245e-06 1.5552906490924383e-05  0.
-4.845186993933012e-06 1.5182440820674605e-05  0.
-6.210592239405359e-06 1.563838031292849e-05  0.
-8.077449766062466e-06 1.7162632648207638e-05  0.
-9.774901484794342e-06 1.8539715145358252e-05  0.
-1.1123958986346476e-05 1.953181045351145e-05  0.
0.0 2.1065179722245338e-05  0.
-3.3494177431746384e-11 2.106517387561731e-05  0.
-1.930365161654094e-10 2.106513328123445e-05  0.
-9.581862887368205e-10 2.106492098243627e-05  0.
-4.1499198616352185e-09 2.1063955906848646e-05  0.
-1.5566169533056117e-08 2.1060168164123768e-05  0.
-5.0208290654922005e-08 2.1047464636763906e-05  0.
-1.3854956032632082e-07 2.1011421654529505e-05  0.
-3.267101689165544e-07 2.0925613108503075e-05  0.
-6.614485819058707e-07 2.075480590120148e-05  0.
-1.1628644067888138e-06 2.0469232599553405e-05  0.
-1.8049037524402671e-06 2.0061895343213977e-05  0.
-2.5246813463954895e-06 1.955196489043598e-05  0.
-3.268187145518772e-06 1.8967630038190747e-05  0.
-4.042989696176874e-06 1.833727817094439e-05  0.
-4.95310449029808e-06 1.7776927999035147e-05  0.
-6.2402486721805336e-06 1.7677607615666993e-05  0.
-8.04537570727265e-06 1.8573340058397792e-05  0.
-9.974815078204701e-06 2.005308784245704e-05  0.
-1.1431311761108726e-05 2.0921244430472402e-05  0.
-1.2741903687219315e-05 2.2242084978755896e-05  0.
0.0 2.3579832849912986e-05  0.
-4.5897621067512176e-11 2.3579826197918737e-05  0.
-2.671490648073852e-10 2.3579779613972425e-05  0.
-1.3388701847039192e-09 2.3579533645040703e-05  0.
-5.845936428426916e-09 2.357840621906844e-05  0.
-2.204559291302733e-08 2.3573956488823335e-05  0.
-7.116109859572372e-08 2.3559020048487246e-05  0.
-1.951356744559843e-07 2.351693796222665e-05  0.
-4.5282859618811834e-07 2.3418666673404166e-05  0.
-8.920688727846207e-07 2.3230083399706255e-05  0.
-1.5117996540740918e-06 2.293196127813589e-05  0.
-2.2567368012251866e-06 2.253380553335646e-05  0.
-3.0588867871075733e-06 2.205854538079865e-05  0.
-3.900948410286592e-06 2.1517438416919428e-05  0.
-4.864923006957912e-06 2.0939148568066534e-05  0.
-6.103120268394874e-06 2.052893824386112e-05  0.
-7.778467000706732e-06 2.080404995312908e-05  0.
-9.749310047144996e-06 2.195274300127903e-05  0.
-1.1357909407886401e-05 2.295355663085703e-05  0.
-1.2641306090671445e-05 2.348161117567241e-05  0.
-1.4025385970052658e-05 2.483980190648978e-05  0.
0.0 2.5907256956631934e-05  0.
-5.929604908060949e-11 2.5907250102873444e-05  0.
-3.4790922001016593e-10 2.5907201772750236e-05  0.
-1.757232428470125e-09 2.5906944605048985e-05  0.
-7.723109961966648e-09 2.5905757971560297e-05  0.
-2.9248752768690883e-08 2.5901053717007362e-05  0.
-9.444287691587106e-08 2.5885256026157994e-05  0.
-2.574517541734893e-07 2.584103367550148e-05  0.
-5.885824134081657e-07 2.5739586497929367e-05  0.
-1.1297649147997598e-06 2.5551618059102226e-05  0.
-1.8487107357135449e-06 2.5270597291182063e-05  0.
-2.666677922650222e-06 2.4918015522347575e-05  0.
-3.544891937402153e-06 2.4506410237390562e-05  0.
-4.525146514030998e-06 2.4024031814462363e-05  0.
-5.7315592414288885e-06 2.3536962002362437e-05  0.
-7.281594732324981e-06 2.3360400398396527e-05  0.
-9.090905675996671e-06 2.3944567538468478e-05  0.
-1.083543866728528e-05 2.4968337135247303e-05  0.
-1.2134271788037517e-05 2.5396315895988216e-05  0.
-1.352616704225895e-05 2.591579186862051e-05  0.
-1.4717940242136234e-05 2.6725477574156388e-05  0.
0.0 2.8289975619475354e-05  0.
-7.230813727195773e-11 2.8289969361373326e-05  0.
-4.268868073565015e-10 2.8289924996183564e-05  0.
-2.169127785009316e-09 2.8289687522503684e-05  0.
-9.581746510964768e-09 2.8288586162762596e-05  0.
-3.640562372569952e-08 2.8284205316722285e-05  0.
-1.1756220378417277e-07 2.8269491539877472e-05  0.
-3.188539987730049e-07 2.8228529938233698e-05  0.
-7.196534196551318e-07 2.8135987637611817e-05  0.
-1.350131570428486e-06 2.7969782432147714e-05  0.
-2.1417190657544736e-06 2.773384456062284e-05  0.
-3.0053434597271295e-06 2.7453743575255862e-05  0.
-3.967265838941187e-06 2.712518328476067e-05  0.
-5.123624770819137e-06 2.6722750139484016e-05  0.
-6.542816250079647e-06 2.6372556839977727e-05  0.
-8.235185626659033e-06 2.643447696538835e-05  0.
-9.91740540702273e-06 2.7068765053179864e-05  0.
-1.1343382691597046e-05 2.765691078018488e-05  0.
-1.2742379104228805e-05 2.7817319054545633e-05  0.
-1.4137252950915026e-05 2.8478531772776188e-05  0.
-1.5295531568037114e-05 2.8822938681125883e-05  0.
0.0 3.0696567919702983e-05  0.
-8.327296690911487e-11 3.069656312529861e-05  0.
-4.937834103161273e-10 3.0696529005707754e-05  0.
-2.5197728000532666e-09 3.069634558881693e-05  0.
-1.1170666938734738e-08 3.069549178019602e-05  0.
-4.253960469682939e-08 3.0692087270743756e-05  0.
-1.3736656190490664e-07 3.0680651196480336e-05  0.
-3.7112558888606327e-07 3.06489435138741e-05  0.
-8.29398450474487e-07 3.057813110924163e-05  0.
-1.5283747693851572e-06 3.0454028957926125e-05  0.
-2.365622484009832e-06 3.028518482542728e-05  0.
-3.2550313469483776e-06 3.0093195613007317e-05  0.
-4.3053609493956466e-06 2.98629716217529e-05  0.
-5.638414152146673e-06 2.957076417609966e-05  0.
-7.166183350387432e-06 2.9367303804823978e-05  0.
-8.80721970212214e-06 2.954528194546237e-05  0.
-1.0366077141463883e-05 2.999856279237127e-05  0.
-1.174248640349119e-05 3.0205929105272888e-05  0.
-1.3281839036388658e-05 3.0379605267813105e-05  0.
-1.4451636558773184e-05 3.083408137288277e-05  0.
-1.5915061908137334e-05 3.1041889774611835e-05  0.
0.0 3.3058355008657326e-05  0.
-9.061744101521146e-11 3.3058352400925506e-05  0.
-5.387465428378228e-10 3.305833380162216e-05  0.
-2.756240068180795e-09 3.305823357007606e-05  0.
-1.2245202991175834e-08 3.305776600353756e-05  0.
-4.669485131546021e-08 3.3055899078231245e-05  0.
-1.507768323725351e-07 3.3049628248935244e-05  0.
-4.0636716075431336e-07 3.3032287598041876e-05  0.
-9.025232208518371e-07 3.299384532467832e-05  0.
-1.6441603891268623e-06 3.292753298929861e-05  0.
-2.5048742337887964e-06 3.28398331869486e-05  0.
-3.4071208784678494e-06 3.2742855717305425e-05  0.
-4.5283671494862535e-06 3.262385601851754e-05  0.
-5.9893379952637706e-06 3.246989765096246e-05  0.
-7.531881226703831e-06 3.2385210411296055e-05  0.
-9.063727419674117e-06 3.2520213521908346e-05  0.
-1.0652567124992408e-05 3.2724150945695085e-05  0.
-1.2077661016491258e-05 3.278613819653548e-05  0.
-1.347938439024289e-05 3.2955855755993756e-05  0.
-1.4760981816460565e-05 3.307422046418599e-05  0.
-1.6025913482199977e-05 3.317891866018475e-05  0.
0.0 3.545000000000002e-05  0.
-9.32046975759847e-11 3.545000000000002e-05  0.
-5.546122525956559e-10 3.545000000000002e-05  0.
-2.839814906225042e-09 3.545000000000002e-05  0.
-1.2625487992849853e-08 3.545000000000002e-05  0.
-4.816658051345529e-08 3.545000000000002e-05  0.
-1.5552527890379648e-07 3.545000000000002e-05  0.
-4.18817520367663e-07 3.545000000000002e-05  0.
-9.281993711447905e-07 3.545000000000002e-05  0.
-1.6842726528524595e-06 3.545000000000002e-05  0.
-2.551991552448325e-06 3.545000000000002e-05  0.
-3.4581392278260194e-06 3.545000000000002e-05  0.
-4.606816403094386e-06 3.545000000000002e-05  0.
-6.113784338356647e-06 3.545000000000002e-05  0.
-7.6479223994324e-06 3.545000000000002e-05  0.
-9.134145054602228e-06 3.545000000000002e-05  0.
-1.0770400289047723e-05 3.545000000000002e-05  0.
-1.2182421897193003e-05 3.545000000000002e-05  0.
-1.3475629760152037e-05 3.545000000000002e-05  0.
-1.497496741662359e-05 3.545000000000002e-05  0.
-1.5906357856670996e-05 3.545000000000002e-05  0.
</DataArray>
<DataArray type="Float64" Name="sigma_xx" NumberOfComponents="1" format="ascii" >
9711.618862362488 
9711.608617324337 
9711.56117945959 
9711.408188461945 
9710.96417738959 
9709.781461497698 
9706.872159664921 
9700.231387421707 
9686.104218148414 
9657.985265421052 
9605.43429276428 
9512.927603538832 
9359.110356538244 
9116.911720891127 
8754.964581697552 
8240.572546380772 
7543.93153802879 
6640.38784939369 
5477.978280798988 
3509.4268177937583 
2197.0224849066067 
33597.71974091873 
33597.69457098038 
33597.574740201744 
33597.17429967101 
33595.97152426396 
33592.664540882375 
33584.2910675843 
33564.66834484594 
33521.91740695342 
33434.97369775738 
33269.30635338675 
32972.56215717691 
32471.415871482266 
31671.33169175994 
30460.96238429329 
28722.276927833904 
26345.693916546275 
23240.405523516907 
19240.101119996627 
12890.237807139378 
8795.790612792229 
150579.0158691011 
150578.92584900418 
150578.48579200223 
150576.96691369577 
150572.26723380052 
150559.0074796253 
150524.68354007913 
150442.73750342283 
150261.42645413737 
149888.00225769202 
149169.20012845163 
147871.34100923967 
145665.93158406022 
142128.53982830947 
136758.6533212089 
129025.17672176978 
118433.26283038076 
104561.27064877859 
86588.40309232472 
58059.175678384905 
39698.643957852815 
557676.476085822 
557676.1845644427 
557674.7258594693 
557669.5493024862 
557653.1318466691 
557605.8496699646 
557481.4202801035 
557180.5491497049 
556508.6400013268 
555116.1534289471 
552426.268249767 
547563.3554529289 
539305.0591139146 
526086.2537923821 
506080.74846681656 
477372.4884463397 
438188.766244754 
386948.5484955081 
320081.68936705485 
212609.20021672896 
143178.8900932928 
1731466.1901761114 
1731465.3267815886 
1731460.9115968486 
1731444.842871926 
1731392.7664297037 
1731240.2159240064 
1730833.7611392187 
1729843.0648604026 
1727621.898470202 
1723017.4661309796 
1714149.6215472836 
1698210.558449672 
1671360.7312063777 
1628803.2499015997 
1565095.9824417774 
1474700.933754874 
1352614.6363025787 
1194028.8489935414 
985633.6834955956 
646491.208735722 
426697.25737334276 
4407873.931663996 
4407871.582598675 
4407859.326724399 
4407813.7002452575 
4407663.064468808 
4407215.891361353 
4406014.939709134 
4403079.739941224 
4396513.5873807585 
4382995.2450610325 
4357247.708748763 
4311655.349134874 
4236239.921840586 
4119168.715280837 
3947829.933873044 
3710291.334000758 
3396403.8572525904 
2994700.4745741454 
2463169.7550878534 
1587242.9956362671 
1018311.9338329767 
8921557.252421772 
8921551.368930904 
8921520.106391732 
8921401.360614471 
8921003.201803807 
8919809.859156888 
8916594.170494612 
8908757.507695027 
8891384.260282367 
8856148.533642795 
8790415.170671884 
8677029.717481054 
8495260.097976834 
8223027.867521518 
7840034.742558166 
7330682.075616981 
6684042.582059382 
5879064.673984408 
4804511.583098424 
3013709.603001795 
1851276.0521954987 
13826253.920618277 
13826240.331864985 
13826166.926685268 
13825883.164153952 
13824919.643227432 
13822014.425109224 
13814195.15898024 
13795303.863677297 
13754097.912514102 
13672496.848033521 
13525002.280464724 
13280427.724596815 
12906523.304981764 
12376796.109437257 
11677309.799726395 
10809719.730471214 
9782594.712364703 
8562282.622393027 
6904428.4771833895 
4133110.5584703544 
2351820.403540981 
15890154.171248743 
15890125.130078442 
15889965.914687904 
15889340.926720612 
15887197.298018036 
15880715.256504416 
15863362.881331597 
15822031.273444982 
15733966.630496629 
15565245.53546781 
15273189.281833969 
14814488.521633567 
14158315.415886367 
13300480.311807053 
12271725.906427015 
11132043.867335435 
9933647.031781921 
8602580.878865654 
6700693.767736033 
3626308.760555863 
1732438.49717998 
13985155.920386195 
13985098.177553218 
13984777.359808125 
13983500.909165382 
13979087.215187803 
13965735.206234993 
13930307.579461664 
13847526.936056498 
13676407.066024031 
13362122.3486983 
12847418.784701284 
12094013.498869114 
11107627.47879158 
9954282.623107681 
8755045.555237735 
7646955.032490202 
6686548.338332959 
5648568.3021660065 
3913943.8046281813 
1536581.5420546771 
301286.8680592277 
12095235.644717447 
12095128.326780114 
12094524.852882445 
12092094.917478979 
12083637.137606952 
12058087.465423524 
11991082.239565976 
11838178.565603938 
11533558.588286947 
11002231.019414239 
10189729.659897072 
9101672.719328923 
7833134.212328443 
6562623.397995314 
5499048.928423761 
4775506.198708912 
4276883.300384272 
3446136.437265596 
1688600.1465486414 
72830.297865476 
-386655.0848364313 
13278555.965911716 
13278369.137325548 
13277307.208903309 
13272986.214926124 
13257867.026269007 
13212327.354421573 
13094564.547497507 
12833222.120660294 
12334886.48241419 
11517921.580912344 
10369240.89669945 
8994586.318772482 
7620276.009825972 
6520816.836283483 
5881301.785161441 
5633041.167422492 
5268498.024026053 
3934225.4765234767 
1601195.6657765089 
58750.34616092942 
-176338.15224110428 
14072856.94936119 
14072551.81696121 
14070800.9615446 
14063611.775003355 
14038353.731453003 
13962583.821027707 
13769733.832475716 
13355066.02743496 
12603547.349957803 
11458852.262557963 
10005731.410639426 
8498406.102730976 
7275364.055590827 
6583104.248314086 
6378680.224027512 
6207277.569505282 
5226660.39891038 
2888096.019236308 
420149.37086596293 
-437050.99098356767 
-345902.3167150826 
13026603.758279473 
13026135.16880668 
13023424.079112396 
13012204.668966142 
12972661.219440604 
12854593.596664231 
12559108.12614482 
11945168.247654114 
10894522.485936586 
9426118.967824187 
7778341.44698323 
6352299.9634328 
5481371.286006853 
5175625.647374103 
5020898.997994489 
4244040.663311649 
2199861.858968961 
-556366.7472460952 
-1744298.7091973177 
-817172.6959643215 
-73090.37941373372 
13307539.610066444 
13306861.925347323 
13302913.133925788 
13286462.662614025 
13228339.142609654 
13055650.544867236 
12630756.343602188 
11778960.997726066 
10410394.363001961 
8679623.75006449 
7006169.12321686 
5850275.8954931535 
5347747.343852388 
5108564.355718867 
4451887.6162054995 
2750870.6584420693 
162351.03982283687 
-1622505.5511054457 
-1105600.7450651634 
150079.45372165483 
512235.05336841755 
13590207.990429688 
13589283.945614757 
13583867.468319267 
13561177.754781004 
13480861.068651713 
13243389.824558344 
12668588.356240075 
11556726.965884631 
9886459.281966835 
8004053.23998234 
6485527.375868745 
5672149.890084162 
5327474.4101785 
4725122.6928998185 
3286880.9740297627 
1120378.5568270031 
-860011.6076522944 
-931896.6519734818 
115982.60670656082 
48981.25208907807 
-362732.9175527082 
13218848.537850771 
13217659.239831246 
13210654.071252326 
13181178.222050264 
13076697.086111449 
12769141.727429504 
12035672.503180292 
10663943.797028553 
8739126.075571986 
6833979.916568786 
5602704.4960475825 
5045194.73175842 
4506194.845150132 
3311783.4028920904 
1377131.6176582363 
-368627.69404393015 
-1028676.3842839221 
-381452.71184638934 
-24495.118393113837 
-258497.19065276464 
-180260.04040914448 
13441440.209063428 
13439994.228924535 
13431445.165123962 
13395349.450021086 
13267278.267029982 
12891684.160123311 
12007103.228850808 
10400914.301724544 
8287476.547299681 
6467657.170784837 
5572042.006495583 
5079725.482237689 
4037012.953899648 
2402001.5650762976 
657344.7732704319 
-237880.52217611787 
35459.829305040184 
33722.042672168696 
-139472.59630893916 
29207.32118228497 
51929.84214545181 
13382446.027999751 
13380784.183922965 
13370932.628838783 
13329236.424172506 
13181198.105550095 
12748269.052649911 
11738303.696003377 
9946395.656872045 
7712347.693334504 
6030656.9947926225 
5433119.795982124 
4830783.076318756 
3174682.166239028 
1481964.2918200255 
497110.95815099776 
3174.717080550734 
247986.63328871923 
-129923.04588521831 
-106285.91456260323 
-345614.8879776541 
-1329784.6261167773 
13340320.92763457 
13338514.695214126 
13327790.08280636 
13282332.838830963 
13120881.275275093 
12649553.23005639 
11556514.309151297 
9645675.231255867 
7348289.307785857 
5787760.412331324 
5388957.283722272 
4623020.829331619 
2484204.509217735 