<?xml version="1.0"?>
<VTKFile type="UnstructuredGrid" version="0.1" byte_order="LittleEndian" compressor="vtkZLibDataCompressor">
<UnstructuredGrid>
<Piece NumberOfPoints="441" NumberOfCells="400">
<PointData>
<DataArray type="Float64" Name="displacement" NumberOfComponents="3" format="ascii" >
0.0 2.06400024500889e-11  0.
-4.646837583431737e-18 2.0639998923743384e-11  0.
-2.0377834921151728e-17 2.0639979646205282e-11  0.
-7.677137447576384e-17 2.0639903761186326e-11  0.
-2.587005825858898e-16 2.063963849982588e-11  0.
-7.868219116346002e-16 2.063880318928083e-11  0.
-2.1768512720172984e-15 2.063641446098282e-11  0.
-5.5152144377901954e-15 2.0630168197621747e-11  0.
-1.2870907341147064e-14 2.0615142114051885e-11  0.
-2.781043742136465e-14 2.0581713108932244e-11  0.
-5.5882335998011736e-14 2.051261758396823e-11  0.
-1.0482866741212715e-13 2.0379403674350515e-11  0.
-1.841871480094295e-13 2.0139013210050047e-11  0.
-3.039884737865514e-13 1.9731777330482518e-11  0.
-4.724320760174138e-13 1.9082469322098328e-11  0.
-6.928252405230321e-13 1.8105928408556955e-11  0.
-9.605096853264682e-13 1.6717955420757733e-11  0.
-1.2612722545818922e-12 1.4850879680066782e-11  0.
-1.5775997616455222e-12 1.2478523331996169e-11  0.
-2.006098973548265e-12 9.766948350370766e-12  0.
-4.563750905462531e-12 9.879220687723092e-12  0.
0.0 8.122786832327697e-11  0.
-1.155335182664622e-17 8.122786074450433e-11  0.
-5.397109958087188e-17 8.122781664288872e-11  0.
-2.160712503508298e-16 8.122762997109025e-11  0.
-7.697424221189521e-16 8.122693272021073e-11  0.
-2.4616677515051182e-15 8.12246025702076e-11  0.
-7.122531852807793e-15 8.121757784134332e-11  0.
-1.8776499329123122e-14 8.119833231181084e-11  0.
-4.5385908438624594e-14 8.115009573940087e-11  0.
-1.0114641448800837e-13 8.10388435442879e-11  0.
-2.088395228156568e-13 8.080151441519463e-11  0.
-4.0116945055461433e-13 8.033115056558671e-11  0.
-7.195877088251407e-13 7.946172066762211e-11  0.
-1.2090555553837135e-12 7.79578773130619e-11  0.
-1.90808632324618e-12 7.55167466800604e-11  0.
-2.8349755816422296e-12 7.178875096644115e-11  0.
-3.973508428195932e-12 6.64213187974355e-11  0.
-5.2647874378499406e-12 5.912486865507569e-11  0.
-6.644585747955509e-12 4.9786891114791e-11  0.
-8.692660922828245e-12 3.928947180337734e-11  0.
-2.2411567369749727e-11 4.108988716353979e-11  0.
0.0 5.493078265082879e-10  0.
-4.778913932469493e-17 5.493077977363076e-10  0.
-2.379282918492295e-16 5.493076209991084e-10  0.
-1.0150597859826483e-15 5.493068221089513e-10  0.
-3.834626334720482e-15 5.493036463456141e-10  0.
-1.2933129771421058e-14 5.492924112331949e-10  0.
-3.924171588612538e-14 5.492567623982291e-10  0.
-1.0790821881195181e-13 5.491545396349964e-10  0.
-2.7071970438047994e-13 5.488877864845543e-10  0.
-6.233795405465848e-13 5.482503031488472e-10  0.
-1.3244451860489981e-12 5.46847373835902e-10  0.
-2.608388685046157e-12 5.439902405707218e-10  0.
-4.780870023372544e-12 5.385827263555569e-10  0.
-8.183791992810157e-12 5.290362323988304e-10  0.
-1.3122628820461073e-11 5.132652372293037e-10  0.
-1.9762071250204268e-11 4.888173200739637e-10  0.
-2.801296804933659e-11 4.531717277608765e-10  0.
-3.746373988289327e-11 4.04210440236804e-10  0.
-4.765603485383908e-11 3.4108421936735087e-10  0.
-6.284773457872976e-11 2.700903473590056e-10  0.
-1.607566928721341e-10 2.853312961044017e-10  0.
0.0 3.303737673349935e-09  0.
-1.7516862723119742e-16 3.303737574739373e-09  0.
-9.256306455721585e-16 3.3037369363937978e-09  0.
-4.196147070918166e-15 3.303733866405753e-09  0.
-1.6785459280488085e-14 3.303720909861221e-09  0.
-5.965953846791622e-14 3.3036724664673983e-09  0.
-1.8978225162018294e-13 3.3035108444185944e-09  0.
-5.443098833081332e-13 3.3030261138887983e-09  0.
-1.417355096935877e-12 3.3017098013078475e-09  0.
-3.3721092143314956e-12 3.2984518514083615e-09  0.
-7.371888186736696e-12 3.2910584581581738e-09  0.
-1.488257952479191e-11 3.27559365186839e-09  0.
-2.786810433779563e-11 3.245639161670866e-09  0.
-4.858779954846573e-11 3.191693395368865e-09  0.
-7.913785683496631e-11 3.1010435412918137e-09  0.
-1.2076091038460034e-10 2.9584760409440013e-09  0.
-1.7307793913402993e-10 2.7480766184711966e-09  0.
-2.336130928191686e-10 2.45621187054698e-09  0.
-2.9980810997965056e-10 2.077450874799098e-09  0.
-4.008837446870314e-10 1.6545808335422234e-09  0.
-1.0012345486252433e-09 1.7642648105838563e-09  0.
0.0 1.724537585743863e-08  0.
-5.763808809034464e-16 1.7245375554828494e-08  0.
-3.218467644348884e-15 1.724537349901153e-08  0.
-1.544573039260192e-14 1.724536302607993e-08  0.
-6.52430631492554e-14 1.7245316273205433e-08  0.
-2.4387420478590274e-13 1.7245132035625682e-08  0.
-8.120413898264876e-13 1.7244487153414388e-08  0.
-2.4259374332077156e-12 1.724246790172159e-08  0.
-6.5487072509939055e-12 1.7236770963996382e-08  0.
-1.6079749327241208e-11 1.7222189224868594e-08  0.
-3.612986467972707e-11 1.7188115363186663e-08  0.
-7.468742236675645e-11 1.7115013817233692e-08  0.
-1.4272139396796052e-10 1.6970303168684858e-08  0.
-2.5316713745039484e-10 1.6704803532173562e-08  0.
-4.184029602107017e-10 1.6251587978701896e-08  0.
-6.463060745772598e-10 1.552932266335314e-08  0.
-9.357557204344186e-10 1.4451638451963668e-08  0.
-1.2739267454623036e-09 1.294345334794447e-08  0.
-1.6495304904584712e-09 1.0976591907299351e-08  0.
-2.2388663775547906e-09 8.808222369081797e-09  0.
-5.432065073819548e-09 9.49939186586724e-09  0.
0.0 7.717269848680262e-08  0.
-1.7160756513590554e-15 7.717269764957577e-08  0.
-1.0077828393477391e-14 7.717269170518126e-08  0.
-5.096860980631724e-14 7.717265978992806e-08  0.
-2.2650091165524838e-13 7.717250973463467e-08  0.
-8.876726628694017e-13 7.717188880453916e-08  0.
-3.085278182086851e-12 7.716961624995996e-08  0.
-9.575999009686042e-12 7.716221091012958e-08  0.
-2.6730397037578548e-11 7.714057235138725e-08  0.
-6.757102665041893e-11 7.708347130731193e-08  0.
-1.556673685023288e-10 7.694649297389825e-08  0.
-3.28716388234984e-10 7.664597698868052e-08  0.
-6.395197008770778e-10 7.603975821318135e-08  0.
-1.1515489879381804e-09 7.490989006232562e-08  0.
-1.9268836366837047e-09 7.295593046720132e-08  0.
-3.006936873974094e-09 6.980867966965369e-08  0.
-4.390161914034712e-09 6.507203682670978e-08  0.
-6.019963187081231e-09 5.839952034933613e-08  0.
-7.862285919021448e-09 4.9680982047351664e-08  0.
-1.0844783679466308e-08 4.027333954538288e-08  0.
-2.5395177195703323e-08 4.405004987858691e-08  0.
0.0 2.918319245199296e-07  0.
-4.6542560617318825e-15 2.918319224175784e-07  0.
-2.860832760962552e-14 2.9183190688319365e-07  0.
-1.5175612950403848e-13 2.918318194256253e-07  0.
-7.065644983294116e-13 2.918313883681725e-07  0.
-2.892810604306089e-12 2.9182952299881146e-07  0.
-1.0459469246561973e-11 2.9182241215597936e-07  0.
-3.3608813847752e-11 2.9179839709973746e-07  0.
-9.665978465917657e-11 2.9172603404894706e-07  0.
-2.5059546826251025e-10 2.9153007686032636e-07  0.
-5.896258076420573e-10 2.910498217537843e-07  0.
-1.2668413034509735e-09 2.899777067814251e-07  0.
-2.499424213497792e-09 2.8778480183511403e-07  0.
-4.550826819693726e-09 2.836534846548419e-07  0.
-7.681152633846876e-09 2.764505671170644e-07  0.
-1.2066699713580544e-08 2.647792528733325e-07  0.
-1.7709509516768084e-08 2.471391145909786e-07  0.
-2.4399085576039777e-08 2.222310049310838e-07  0.
-3.2115863852072496e-08 1.8980437627006921e-07  0.
-4.5065200209573604e-08 1.560801330320894e-07  0.
-1.0100954097615666e-07 1.7376296814163233e-07  0.
0.0 9.165837368394977e-07  0.
-1.1561491822044019e-14 9.165837320253969e-07  0.
-7.403773183885824e-14 9.165836951548829e-07  0.
-4.099987710492196e-13 9.165834785542603e-07  0.
-1.9914376128544603e-12 9.165823645864837e-07  0.
-8.485051402716531e-12 9.165773445686399e-07  0.
-3.1798382473435976e-11 9.165574927811688e-07  0.
-1.053703974503974e-10 9.164883016797855e-07  0.
-3.1088003381534513e-10 9.162743679573719e-07  0.
-8.226549331000857e-10 9.156832062116401e-07  0.
-1.9665788565444025e-09 9.142124362904646e-07  0.
-4.275474802198614e-09 9.108945959394065e-07  0.
-8.505240316345845e-09 9.040644255654322e-07  0.
-1.556801897203859e-08 8.911572056974993e-07  0.
-2.6352016377768147e-08 8.686467564815337e-07  0.
-4.1442957180833374e-08 8.322368879704538e-07  0.
-6.082831620650583e-08 7.773885223496641e-07  0.
-8.386131513363678e-08 7.003487738761499e-07  0.
-1.1108364504202367e-07 6.01462146702438e-07  0.
-1.5867369883397006e-07 5.051731394308132e-07  0.
-3.368229099635138e-07 5.75078996916366e-07  0.
0.0 2.343056994404331e-06  0.
-2.6401213862561708e-14 2.3430569843332095e-06  0.
-1.7536581528378603e-13 2.343056904687481e-06  0.
-1.009202501302932e-12 2.3430564187107586e-06  0.
-5.0920336372449894e-12 2.3430538223883405e-06  0.
-2.2491248569345124e-11 2.3430416886195896e-06  0.
-8.704267475374482e-11 2.342992105993602e-06  0.
-2.962973476130632e-10 2.342814494979509e-06  0.
-8.927499053428831e-10 2.342253725076971e-06  0.
-2.398647422993753e-09 2.340681912901603e-06  0.
-5.790556014547501e-09 2.3367404812780002e-06  0.
-1.2652426345641775e-08 2.327831106216411e-06  0.
-2.5191636625744873e-08 2.3095469503255786e-06  0.
-4.599374006276822e-08 2.2752525975704093e-06  0.
-7.744883236396456e-08 2.2160996696194142e-06  0.
-1.2095250598623274e-07 2.1217240998251895e-06  0.
-1.7619266556735995e-07 1.981756921972304e-06  0.
-2.415761680967926e-07 1.7888037335169514e-06  0.
-3.2128110181442684e-07 1.5495337716142204e-06  0.
-4.6703081866871136e-07 1.344732441737438e-06  0.
-9.262252211948289e-07 1.5736716155209072e-06  0.
0.0 4.778753704735536e-06  0.
-5.554764663504773e-14 4.77875368549574e-06  0.
-3.8111799926449e-13 4.7787535289412525e-06  0.
-2.269405513444809e-12 4.778752541024407e-06  0.
-1.1845360868859302e-11 4.778747081515042e-06  0.
-5.40301389858867e-11 4.778720726505843e-06  0.
-2.1516084740825684e-10 4.778609857027886e-06  0.
-7.496104129528774e-10 4.778203234530031e-06  0.
-2.296597618455534e-09 4.77689820214786e-06  0.
-6.232224641410842e-09 4.7732091374539655e-06  0.
-1.5098523967544846e-08 4.763952657425957e-06  0.
-3.291196424614416e-08 4.743173843727594e-06  0.
-6.50407131255464e-08 4.701118114764358e-06  0.
-1.1734649828243627e-07 4.623813181099231e-06  0.
-1.946125797975903e-07 4.493844920859139e-06  0.
-2.9864872601944536e-07 4.292654987705782e-06  0.
-4.273344438534687e-07 4.004337074188639e-06  0.
-5.777848239423787e-07 3.6233398149102685e-06  0.
-7.691074340719675e-07 3.1861604352218496e-06  0.
-1.1346109779654386e-06 2.9115845218640374e-06  0.
-2.0672451417355486e-06 3.516959870354286e-06  0.
0.0 7.72285053931579e-06  0.
-1.0797683132306892e-13 7.722850505706537e-06  0.
-7.622636151828862e-13 7.722850225252744e-06  0.
-4.677358191090585e-12 7.722848402293771e-06  0.
-2.5155371148845584e-11 7.722838023025082e-06  0.
-1.1805013941887028e-10 7.72278646376348e-06  0.
-4.820650595596278e-10 7.722563954649459e-06  0.
-1.7130506575693559e-09 7.721731284996758e-06  0.
-5.315715952742375e-09 7.719025388614161e-06  0.
-1.4497441690609605e-08 7.711351497966578e-06  0.
-3.5031596796138274e-08 7.692218082252273e-06  0.
-7.562742741996762e-08 7.649935231771854e-06  0.
-1.4707061980851873e-07 7.566453619877576e-06  0.
-2.596864863576325e-07 7.418037539523112e-06  0.
-4.195666685065913e-07 7.17870486167812e-06  0.
-6.253177241141905e-07 6.8261987130585425e-06  0.
-8.684351915428297e-07 6.3503684463815e-06  0.
-1.1468713675784987e-06 5.771829183630307e-06  0.
-1.5225981501662382e-06 5.218531913488581e-06  0.
-2.2602935684907956e-06 5.1580514987541725e-06  0.
-3.7156527434263816e-06 6.407122125357221e-06  0.
0.0 1.0232822865216928e-05  0.
-1.9488641196972817e-13 1.0232822811178657e-05  0.
-1.4105551760700254e-12 1.0232822350203046e-05  0.
-8.885836178926404e-12 1.0232819275366252e-05  0.
-4.9059233745481224e-11 1.0232801305557452e-05  0.
-2.360464970610144e-10 1.023270977331645e-05  0.
-9.853065916437837e-10 1.0232305843018976e-05  0.
-3.5605777894237943e-09 1.0230768095237934e-05  0.
-1.1153434568295253e-08 1.0225724525890275e-05  0.
-3.0439857884964635e-08 1.0211436050320356e-05  0.
-7.295458806077111e-08 1.0176252511588938e-05  0.
-1.549173714177643e-07 1.0100339321797714e-05  0.
-2.94083531502491e-07 9.955628309527504e-06  0.
-5.036195035412595e-07 9.709897277218705e-06  0.
-7.848877033324778e-07 9.335417814901273e-06  0.
-1.1243154622492635e-06 8.820351009306258e-06  0.
-1.500623168388011e-06 8.183988412672899e-06  0.
-1.9237944374432123e-06 7.519710838079409e-06  0.
-2.542749452347921e-06 7.144101690428175e-06  0.
-3.729869455318445e-06 7.793817788313159e-06  0.
-5.470292512331074e-06 9.718036393916281e-06  0.
0.0 1.2277036903710195e-05  0.
-3.283878536705194e-13 1.227703682327338e-05  0.
-2.4290426004429772e-12 1.2277036123844138e-05  0.
-1.5656284268971248e-11 1.2277031352720793e-05  0.
-8.844206969117221e-11 1.2277002830487524e-05  0.
-4.349316356079934e-10 1.2276854340230399e-05  0.
-1.850620987611036e-09 1.227618619947589e-05  0.
-6.783758557354696e-09 1.2273605012946413e-05  0.
-2.139673737508581e-08 1.2265080872554083e-05  0.
-5.824307340399414e-08 1.2241032948644245e-05  0.
-1.3780422610080897e-07 1.2182845346443575e-05  0.
-2.8612177797231585e-07 1.2061154809207263e-05  0.
-5.265731984836777e-07 1.183925079413854e-05  0.
-8.67999987514981e-07 1.1483376200349455e-05  0.
-1.2958481747443264e-06 1.0976871985723587e-05  0.
-1.7738770289847016e-06 1.0335078163811224e-05  0.
-2.2731239953242732e-06 9.627719302312318e-06  0.
-2.8469133233162664e-06 9.066803012679201e-06  0.
-3.7620788736490007e-06 9.210307539909165e-06  0.
-5.30910802663695e-06 1.077683086781268e-05  0.
-7.013573551320369e-06 1.2867691771909113e-05  0.
0.0 1.4692607277926863e-05  0.
-5.1790178071882e-13 1.4692607167509657e-05  0.
-3.903420459290965e-12 1.4692606191327887e-05  0.
-2.5661926115151864e-11 1.469259940197934e-05  0.
-1.47866983938542e-10 1.4692558009840362e-05  0.
-7.410845920548501e-10 1.469233839080055e-05  0.
-3.206210967242443e-09 1.4691333359989261e-05  0.
-1.1897173534478e-08 1.4687401356289366e-05  0.
-3.771453550353798e-08 1.467434883097973e-05  0.
-1.0216304998828435e-07 1.4637752351823396e-05  0.
-2.3780673992523049e-07 1.4551050620275085e-05  0.
-4.805012710783811e-07 1.4376396009786083e-05  0.
-8.529084676838837e-07 1.4074198508682448e-05  0.
-1.3469444931200334e-06 1.3620230386411183e-05  0.
-1.921293181438913e-06 1.3021412211561349e-05  0.
-2.5217228894922933e-06 1.2325537988531557e-05  0.
-3.1436836845468527e-06 1.1660369485310386e-05  0.
-3.942471053878492e-06 1.1374719909986728e-05  0.
-5.243647405594409e-06 1.2150726870368144e-05  0.
-6.975748547481344e-06 1.4088761729123096e-05  0.
-8.535643776242798e-06 1.560666981716157e-05  0.
0.0 1.7257392476523355e-05  0.
-7.652723234997801e-13 1.7257392337572655e-05  0.
-5.860452458347278e-12 1.725739109159694e-05  0.
-3.91802470240991e-11 1.7257382281350883e-05  0.
-2.2959979053527368e-10 1.7257327660530392e-05  0.
-1.1694583862204576e-09 1.7257033110612885e-05  0.
-5.131809074700402e-09 1.725566551151543e-05  0.
-1.923875670785704e-08 1.7250257237981817e-05  0.
-6.120673296286815e-08 1.723223396914256e-05  0.
-1.6476343189552636e-07 1.718206602860893e-05  0.
-3.7647245394393244e-07 1.7065946265998864e-05  0.
-7.377150121373583e-07 1.6841731631344084e-05  0.
-1.2588269837827218e-06 1.647616870213249e-05  0.
-1.9029525205053354e-06 1.5964014130068865e-05  0.
-2.603803793275396e-06 1.5336123638665712e-05  0.
-3.324603845402272e-06 1.4662827032759613e-05  0.
-4.137134244040981e-06 1.413555018267964e-05  0.
-5.322570097398367e-06 1.4238335101007355e-05  0.
-7.056019948754054e-06 1.5483963600787305e-05  0.
-8.82668548843991e-06 1.701109320911723e-05  0.
-1.020149801289978e-05 1.7886791452346126e-05  0.
0.0 1.9477004188769953e-05  0.
-1.061961795379032e-12 1.94770040287215e-05  0.
-8.240881281454393e-12 1.9477002576698566e-05  0.
-5.5868945923589206e-11 1.9476992168735565e-05  0.
-3.320224307472619e-10 1.947692674449282e-05  0.
-1.7140669548609659e-09 1.9476569174177917e-05  0.
-7.611110133920829e-09 1.947488897174225e-05  0.
-2.8775401522789642e-08 1.9468185721799455e-05  0.
-9.177233018500951e-08 1.9445784649660842e-05  0.
-2.4534132363570017e-07 1.9383905475585252e-05  0.
-5.497708543245926e-07 1.9244062951535532e-05  0.
-1.042791535488051e-06 1.898600184028042e-05  0.
-1.7082810404580003e-06 1.8591608399396657e-05  0.
-2.480614540088804e-06 1.8075725382707425e-05  0.
-3.293939209062113e-06 1.747856224565306e-05  0.
-4.180259531527331e-06 1.6885753100185243e-05  0.
-5.319563344926719e-06 1.656484726417601e-05  0.
-6.957806644936536e-06 1.7080950166618704e-05  0.
-8.917322390368627e-06 1.843860493514548e-05  0.
-1.0493720189272908e-05 1.93445023528714e-05  0.
-1.1732466646987277e-05 2.0247903287147474e-05  0.
0.0 2.1921246248495857e-05  0.
-1.3861507756558094e-12 2.1921246081898283e-05  0.
-1.0872179697740994e-11 2.1921244556058068e-05  0.
-7.454299151083634e-11 2.1921233497596437e-05  0.
-4.480525662892354e-10 2.192116320078893e-05  0.
-2.3384322562895688e-09 2.1920774795078302e-05  0.
-1.0483573653933049e-08 2.191893183829212e-05  0.
-3.990601849960859e-08 2.1911526521528773e-05  0.
-1.274877301901659e-07 2.188672789503082e-05  0.
-3.385461109632714e-07 2.181871204808572e-05  0.
-7.445265697291853e-07 2.1668435772104775e-05  0.
-1.3674971418391337e-06 2.140337421508599e-05  0.
-2.1534463982539404e-06 2.102449001645958e-05  0.
-3.027820340621569e-06 2.0558772594793207e-05  0.
-3.970817940190618e-06 2.003594962946952e-05  0.
-5.094648516029491e-06 1.956767972898024e-05  0.
-6.622149242356025e-06 1.951759489242125e-05  0.
-8.494255021494252e-06 2.0309834058619145e-05  0.
-1.0244148681311405e-05 2.1338589040365846e-05  0.
-1.1484941880082351e-05 2.1803992987587827e-05  0.
-1.2845540046592608e-05 2.294835612800385e-05  0.
0.0 2.4318627578082827e-05  0.
-1.7031886648667146e-12 2.4318627425084977e-05  0.
-1.3469035167349522e-11 2.431862601349871e-05  0.
-9.31510900171013e-11 2.4318615695514727e-05  0.
-5.648053942697674e-10 2.4318549534936755e-05  0.
-2.9726375446924633e-09 2.431818088658239e-05  0.
-1.3425696289555188e-08 2.431641838406395e-05  0.
-5.1372770217368314e-08 2.4309296756969242e-05  0.
-1.6430668395544557e-07 2.428541055259942e-05  0.
-4.3376755972990294e-07 2.422028652245779e-05  0.
-9.383137923396582e-07 2.4079173175368188e-05  0.
-1.6739701126350324e-06 2.384029644958902e-05  0.
-2.5449711925295276e-06 2.3520011462447184e-05  0.
-3.5018412951748196e-06 2.3146398527293707e-05  0.
-4.61465779898303e-06 2.2729124633725648e-05  0.
-5.997279573810859e-06 2.2412503564036615e-05  0.
-7.74001957869019e-06 2.2608559577369807e-05  0.
-9.492554805201233e-06 2.338308739580227e-05  0.
-1.0838281836966278e-05 2.392169099486395e-05  0.
-1.2144039399092293e-05 2.4224130685897234e-05  0.
-1.3423835756249295e-05 2.500785250809393e-05  0.
0.0 2.6662853141911744e-05  0.
-1.972069342931794e-12 2.6662853023943632e-05  0.
-1.56864029933923e-11 2.666285192997343e-05  0.
-1.091539705489792e-10 2.6662843885969177e-05  0.
-6.659418036305086e-10 2.6662791994082878e-05  0.
-3.5258797847821963e-09 2.6662501147385515e-05  0.
-1.6008192431028827e-08 2.666110327340338e-05  0.
-6.148138487249266e-08 2.665543321986039e-05  0.
-1.9677827565817476e-07 2.6636397534787065e-05  0.
-5.171401700915126e-07 2.658473764700573e-05  0.
-1.1043254415934044e-06 2.6474476726472152e-05  0.
-1.9246486428182815e-06 2.629394976363373e-05  0.
-2.8457066307794743e-06 2.6064794459172077e-05  0.
-3.870375144166294e-06 2.5808211302680578e-05  0.
-5.169712754122701e-06 2.552121781795824e-05  0.
-6.736499633363301e-06 2.5349879828319498e-05  0.
-8.4141161886458e-06 2.5624926167278565e-05  0.
-9.956844602509451e-06 2.6151834269055644e-05  0.
-1.121187869140358e-05 2.635647835754177e-05  0.
-1.2755049309864437e-05 2.6695189500996754e-05  0.
-1.3763610126227036e-05 2.6997078416416815e-05  0.
0.0 2.907841373638821e-05  0.
-2.152867359657229e-12 2.9078413672118995e-05  0.
-1.7184069505515646e-11 2.9078413074243232e-05  0.
-1.2001392133775572e-10 2.9078408661934396e-05  0.
-7.349047520254373e-10 2.9078380092040607e-05  0.
-3.904879686507661e-09 2.907821937981066e-05  0.
-1.778462532766292e-08 2.9077444431655604e-05  0.
-6.845476910860006e-08 2.9074293463722317e-05  0.
-2.191843442331278e-07 2.9063707662620576e-05  0.
-5.743827276202172e-07 2.903505775366611e-05  0.
-1.216563957088741e-06 2.8974478090030344e-05  0.
-2.0884373154788215e-06 2.8877403029086102e-05  0.
-3.033195788535311e-06 2.8758692411125955e-05  0.
-4.105718642341772e-06 2.8629516202038877e-05  0.
-5.549806251003497e-06 2.8484826096960732e-05  0.
-7.193330344292447e-06 2.8416270746685126e-05  0.
-8.698601757220581e-06 2.8597795678346277e-05  0.
-1.0199247076163557e-05 2.884798380057303e-05  0.
-1.1609181904035942e-05 2.8882679969333978e-05  0.
-1.2952189712568194e-05 2.9123106881998822e-05  0.
-1.41830785527532e-05 2.9344493152569412e-05  0.
0.0 3.1449999999999924e-05  0.
-2.216631150047513e-12 3.1449999999999924e-05  0.
-1.7713474006234717e-11 3.1449999999999924e-05  0.
-1.238620334360938e-10 3.1449999999999924e-05  0.
-7.594008214829866e-10 3.1449999999999924e-05  0.
-4.039822467814037e-09 3.1449999999999924e-05  0.
-1.8418458420766638e-08 3.1449999999999924e-05  0.
-7.094656939525066e-08 3.1449999999999924e-05  0.
-2.2719206251151115e-07 3.1449999999999924e-05  0.
-5.947893401577662e-07 3.1449999999999924e-05  0.
-1.256258015295726e-06 3.1449999999999924e-05  0.
-2.145316168293074e-06 3.1449999999999924e-05  0.
-3.0966625804830156e-06 3.1449999999999924e-05  0.
-4.1866758535671415e-06 3.1449999999999924e-05  0.
-5.684708471554637e-06 3.1449999999999924e-05  0.
-7.343283169266232e-06 3.1449999999999924e-05  0.
-8.7713849587797e-06 3.1449999999999924e-05  0.
-1.0299230373312882e-05 3.1449999999999924e-05  0.
-1.1776453083276164e-05 3.1449999999999924e-05  0.
-1.2897709133965682e-05 3.1449999999999924e-05  0.
-1.4404114056604318e-05 3.1449999999999924e-05  0.
</DataArray>
<DataArray type="Float64" Name="sigma_xx" NumberOfComponents="1" format="ascii" >
339.29197371662656 
339.2918241917896 
339.29106806329645 
339.28835728724835 
339.27969580460615 
339.2545949831848 
339.1881146397323 
339.0261547386863 
338.6611738709354 
337.89656775917706 
336.4010526363258 
333.6596197778262 
328.9342666912275 
321.25334371579925 
309.45011801897226 
292.26551712668845 
268.5134946722732 
237.23436932687736 
196.9295354842248 
129.83157554602437 
85.41483542678912 
1480.270299281105 
1480.269891729335 
1480.2677406777761 
1480.259617370194 
1480.2323480889163 
1480.1496838690027 
1479.9216632499497 
1479.3455296036036 
1478.0041394768514 
1475.1110902044836 
1469.3041799906932 
1458.412617419413 
1439.2550647418507 
1407.556248678165 
1358.0828674031316 
1285.0799803093555 
1183.0167132326205 
1047.36235276015 
871.9463641171374 
595.3864052526956 
417.53437315383815 
9023.048449230406 
9023.046811473809 
9023.037781658024 
9023.001855956722 
9022.875286068818 
9022.474722841785 
9021.327187758165 
9018.33038976507 
9011.150519616649 
8995.278572351825 
8962.73958137794 
8900.597263383766 
8789.604983863715 
8603.558717518164 
8310.010394885212 
7872.885124912685 
7257.083684872319 
6433.164055757998 
5359.497215171037 
3660.589703263771 
2568.152714677029 
46749.55304651006 
46749.547173136045 
46749.51343670573 
46749.372571802654 
46748.8535739413 
46747.144383652 
46742.074798378206 
46728.43316757267 
46694.90549928656 
46619.17687983628 
46461.112456891424 
46154.72848954748 
45600.80321560077 
44663.10152683449 
43171.76054635939 
40936.75758527203 
37771.74170467855 
33516.106872341625 
27921.795438246012 
18960.258551756197 
13174.580016817032 
206843.68115816414 
206843.6621682545 
206843.54878499615 
206843.0533890663 
206841.14995894168 
206834.64537142863 
206814.72883307678 
206759.68262807425 
206621.37003071007 
206303.33619840452 
205630.08673431244 
204310.8728539827 
201906.4920385754 
197812.73751728883 
191276.17112480447 
181454.63899127964 
167521.13305277255 
148741.78948324485 
123844.59612735095 
83453.77333049405 
57274.14933379135 
768981.386839773 
768981.3310871483 
768980.9860007665 
768979.4135851134 
768973.1331787294 
768950.9352271581 
768881.0252934634 
768683.3714263788 
768177.970930503 
767000.9062057224 
764487.7244010747 
759538.8952396528 
750502.6020409337 
735126.7570683188 
710636.2547240839 
673970.8835602291 
622157.418386257 
552462.8596074274 
459350.2042457285 
306339.2361980276 
206793.1531675004 
2351572.744639662 
2351572.5951748993 
2351571.638909666 
2351567.1108060237 
2351548.372691569 
2351480.1032571355 
2351259.8057312584 
2350625.594854882 
2348984.2172850184 
2345136.6867714836 
2336910.2711190213 
2320761.5249010846 
2291478.90232926 
2242151.122680299 
2164543.0836952664 
2049917.0187989073 
1890071.5022208767 
1677037.7634895798 
1390615.7781640026 
914021.5768221018 
603002.3061812548 
5750220.437819052 
5750220.070445265 
5750217.6481293775 
5750205.771235393 
5750155.021373394 
5749965.064187679 
5749339.416790078 
5747514.058273502 
5742760.504899759 
5731625.693967108 
5707988.599616177 
5662195.750498432 
5580686.2095185155 
5446530.263602821 
5241050.280801164 
4946244.399987644 
4546737.241650015 
4025414.902203318 
3321228.6734084734 
2136590.026928083 
1362464.3724655265 
10836384.422433585 
10836383.592283918 
10836377.968106821 
10836349.516830701 
10836224.407894539 
10835744.887249753 
10834138.759742904 
10829411.977700448 
10817100.667831047 
10788502.348385336 
10728803.132790895 
10615991.353936942 
10421686.19010085 
10114545.78998657 
9665850.30551048 
9055074.857025139 
8270572.9155594045 
7287366.41601554 
5953897.183914013 
3698466.079187486 
2229986.151868173 
15104302.163368018 
15104300.433868097 
15104288.429540059 
15104225.992145395 
15103944.365253182 
15102842.419895697 
15099101.342405444 
15088042.669153625 
15059402.360423338 
14993935.698670933 
14860889.008542012 
14618802.287930796 
14221881.612454293 
13631876.622231806 
12831742.143161483 
11833481.78078828 
10665867.199475281 
9301063.403429294 
7431071.565206043 
4316128.181831689 
2328720.7636009254 
15313301.856054636 
15313298.51887257 
15313274.85163738 
15313148.683635911 
15312566.640148345 
15310247.83068963 
15302289.731059056 
15278741.894089453 
15218408.107943244 
15083684.79658319 
14819768.728191286 
14363540.20258671 
13664102.88409983 
12710101.35018212 
11549633.227796279 
10286147.430595947 
9020470.816210786 
7680703.365860303 
5755041.9561034385 
2819480.098357648 
1093772.6004730384 
12781060.168406984 
12781054.172696818 
12781010.830813695 
12780774.681734042 
12779663.294279533 
12775164.898854833 
12759589.020406496 
12713566.500310129 
12597374.888899956 
12345582.817094361 
11874708.330429979 
11111936.638966203 
10039994.949125063 
8736534.384092314 
7377512.223187393 
6174750.667493198 
5223757.754775338 
4233005.662271244 
2531323.908552241 
589923.3363358537 
-226343.0496483734 
12515431.330987543 
12515421.266269734 
12515347.275947409 
12514936.328907484 
12512967.97058419 
12504889.564567402 
12476713.738388931 
12393727.044204457 
12187925.229540423 
11757730.497208595 
10997405.451213717 
9860568.0380437 
8430131.975012243 
6936853.974797271 
5688614.118036686 
4888079.827716358 
4372409.378404712 
3418317.837605287 
1497349.0932503752 
19194.809778880328 
-253721.41354657337 
13979746.674317645 
13979730.860035889 
13979612.893474363 
13978946.72297813 
13975706.87751982 
13962250.11852014 
13915041.022556677 
13776614.766686741 
13440181.101308767 
12765520.65649617 
11650738.015554525 
10139080.459259305 
8485039.076296419 
7079532.010717079 
6225777.171384686 
5862935.511829151 
5318664.262467301 
3663072.3186275773 
1232537.341926593 
-120793.79939383082 
-252562.94778324384 
13428516.631430037 
13428493.324115273 
13428317.284088545 
13427308.979896016 
13422340.96348919 
13401495.23657329 
13328022.205247827 
13113684.02206948 
12603702.454887304 
11626572.616128622 
10133417.89313506 
8334370.132604504 
6680175.71288132 
5610513.607898077 
5158446.478088586 
4772843.587372195 
3456514.620636805 
915039.4912823243 
-1059475.7855005655 
-1008396.2058196389 
-487590.7010978805 
13089302.193859017 
13089269.914808672 
13089023.55803775 
13087595.69022298 
13080483.368811533 
13050385.33633771 
12943906.525704602 
12634890.327155862 
11914900.361852795 
10599340.48658643 
8758621.696698632 
6835679.276243955 
5403429.82691366 
4714028.279844798 
4321109.611728044 
3271176.596373318 
1052908.227844646 
-1390086.4312183226 
-1733185.187089419 
-359272.85970548075 
314315.05843634624 
13589352.020778874 
13589309.96099101 
13588986.237511512 
13587091.891843734 
13577572.365446867 
13537009.518468238 
13393095.360515669 
12977459.543599322 
12027713.743870737 
10371410.32521551 
8264791.557566359 
6412532.225664128 
5329139.083092535 
4796025.521658012 
3997360.82641523 
2122042.2177879927 
-163478.32793019945 
-1131148.6890670846 
-234751.46335647395 
281979.50635841326 
-62786.742004791275 
13307961.708067635 
13307910.088308668 
13307510.190822994 
13305152.74389112 
13293225.073082311 
13242130.904389119 
13060462.883603796 
12537963.231909204 
11363776.701254673 
9400811.164351152 
7133319.171943994 
5508140.281749249 
4760445.94309431 
4004912.243312109 
2562896.764035635 
495111.48660644004 
-919461.2968912465 
-354785.6315532699 
181672.3725552312 
-172847.91100204038 
-246660.11114753038 
13359106.001705218 
13359046.283252552 
13358581.5031554 
13355827.160077607 
13341823.778440516 
13281611.618117768 
13067204.868233643 
12452487.438504832 
11088612.804210786 
8884789.064194677 
6549012.198144263 
5212114.484345553 
4690129.640988377 
3425665.418276217 
1458232.6855683979 
113042.09759651986 
-332756.8975445137 
297358.84426180855 
-43426.25921217282 
76929.77032777737 
1203809.7122360123 
13436075.475356162 
13436010.3148828 
13435501.778713446 
13432478.678478 
13417064.405853655 
13350636.372951573 
13113888.672023194 
12436455.969178516 
10945470.853578612 
8589081.43824062 
6239667.505768988 
5137539.923104262 
4721188.915417559 
2951060.2668796377 