<?xml version="1.0"?>
<VTKFile type="UnstructuredGrid" version="0.1" byte_order="LittleEndian" compressor="vtkZLibDataCompressor">
<UnstructuredGrid>
<Piece NumberOfPoints="441" NumberOfCells="400">
<PointData>
<DataArray type="Float64" Name="displacement" NumberOfComponents="3" format="ascii" >
0.0 2.767928584035976e-33  0.
4.188055320747336e-33 1.3708244146243214e-33  0.
5.693408021162205e-33 2.368464416942907e-34  0.
4.677515505185076e-33 -1.330791392371173e-33  0.
2.2750135391036386e-33 -1.0408112368742559e-33  0.
1.4181929495587144e-34 -1.0978567001846641e-33  0.
-3.631102779130085e-33 -2.670598773130398e-33  0.
-1.91126786508276e-32 -1.2777931463562742e-32  0.
-9.964361154598857e-32 -6.756618125388855e-32  0.
-7.536629773495471e-31 -5.856359656060974e-31  0.
-3.485495956637772e-30 -2.1523654343625236e-30  0.
-8.683228855603259e-30 -3.0130140700849064e-30  0.
-1.6526881036903056e-29 -4.903230376810997e-30  0.
-2.4657054290917008e-29 -3.1452328049235096e-30  0.
-3.102470893128306e-29 -3.275628918087083e-30  0.
-3.639886127854507e-29 -2.0814214678837532e-30  0.
-4.0942470278484345e-29 -2.4422873681201105e-30  0.
-4.431730158900893e-29 -1.033685592478598e-30  0.
-4.1869227983671564e-29 3.926739536911098e-30  0.
-2.688423380634981e-29 8.477837561568812e-30  0.
-1.5801982225845213e-29 2.0622834871098659e-29  0.
0.0 2.8513925237330587e-30  0.
2.672037098314814e-30 -2.8816034860374693e-31  0.
2.5275680772370612e-30 3.519545182580546e-31  0.
1.8940097490642655e-30 -1.106773084908757e-30  0.
3.987624546013321e-31 -3.6315387974601152e-31  0.
-4.0072227853244844e-32 -7.908290106919333e-32  0.
-2.6899692516307028e-31 -1.5354419190955359e-31  0.
-1.593341353122179e-30 -1.1849020284301369e-30  0.
-7.989580889289545e-30 -5.3000737031076906e-30  0.
-3.239764935562268e-29 -1.9711446637691228e-29  0.
-2.5063718176648754e-28 -2.0175418840054172e-28  0.
-1.2194308454807148e-27 -7.603995403352549e-28  0.
-2.6331222024855496e-27 -7.034229243769742e-28  0.
-4.679578134142146e-27 -1.3039314364983171e-27  0.
-7.077464023179568e-27 -1.199926667540252e-27  0.
-9.125411821624921e-27 -6.800841042785802e-28  0.
-1.0982424182001583e-26 -1.2351081326616759e-27  0.
-1.2240006420662184e-26 -1.504887722176783e-28  0.
-1.2215194757450723e-26 4.651389963994303e-28  0.
-8.344715305232274e-27 2.450148397440536e-27  0.
-5.1815507882862886e-27 6.692475716929288e-27  0.
0.0 -4.507250123444473e-28  0.
2.547789996357597e-27 2.6256897376418402e-27  0.
2.4516296398204993e-27 -2.148925150051797e-27  0.
2.648412667570585e-28 -2.3818020740712245e-28  0.
1.2608438909602457e-29 -1.300364383124928e-29  0.
-3.647032579757599e-30 -4.163790709073385e-30  0.
-5.098552529488344e-29 -4.3508739027358814e-29  0.
-1.9759355115351934e-28 -1.060086863250777e-28  0.
-1.5834884320510146e-27 -1.3194224479243153e-27  0.
-7.167485051016853e-27 -4.3094067114850795e-27  0.
-2.1899373379656526e-26 -1.1042605104904322e-26  0.
-1.2593977970631375e-25 -9.387314504800082e-26  0.
-5.5768985725500775e-25 -3.684961937008162e-25  0.
-1.1811879574427219e-24 -2.141649425750316e-25  0.
-2.4860771238350578e-24 -9.30192190817594e-25  0.
-5.231814099914696e-24 -1.0168962500997471e-24  0.
-5.353753162610462e-24 7.250299532064783e-25  0.
-5.6890227936214e-24 -1.2346818494287587e-24  0.
-7.45914198491739e-24 -4.6646731768860416e-26  0.
-5.390498143119034e-24 1.085571406850693e-24  0.
-4.0741769306266616e-24 4.222349681263656e-24  0.
0.0 1.4945204025919033e-20  0.
2.302198160211079e-24 1.4940938060183817e-20  0.
8.833192999772584e-26 1.4942202691538596e-20  0.
3.0266471907375295e-27 1.4942292598325633e-20  0.
1.4451329033977342e-28 1.4942295578412017e-20  0.
-2.0885401433478116e-28 1.4942295567962084e-20  0.
-2.176813707201398e-27 1.4942293904101787e-20  0.
-3.151855671996403e-26 1.494226731680448e-20  0.
-1.570502884495902e-25 1.4942194189786012e-20  0.
-1.77613143445297e-24 1.4941018818681577e-20  0.
-5.981245146686246e-24 1.4939824876747567e-20  0.
-1.455333841634705e-23 1.4937368647522352e-20  0.
-4.250939736759405e-23 1.491863495958083e-20  0.
-1.7101871868987645e-22 1.4869987544483978e-20  0.
-4.387404433578787e-22 1.47998785917382e-20  0.
-7.423387779014512e-22 1.3047345900138397e-20  0.
-6.574775918112836e-22 1.1272040525852977e-20  0.
-9.652910874690852e-22 1.0076334124282027e-20  0.
-1.4550037982751439e-21 7.409900643802429e-21  0.
-1.3424498077390033e-21 4.74861168981833e-21  0.
-2.858808128411863e-21 4.8765637588650754e-21  0.
0.0 7.526484806381551e-19  0.
1.0403123581333359e-23 7.535052777282931e-19  0.
-4.022102335138962e-25 7.535189346821002e-19  0.
2.603282454843303e-26 7.535185984368443e-19  0.
4.576445632351522e-28 7.535186281752128e-19  0.
-7.642645236424877e-27 7.535186217175234e-19  0.
-9.723395819867734e-26 7.535185431636199e-19  0.
-1.1568345681476057e-24 7.53517587379329e-19  0.
-1.5237279190663334e-23 7.535072236588459e-19  0.
-1.593640210637641e-22 7.534082010154111e-19  0.
-4.250964953266039e-22 7.523439848661894e-19  0.
-1.381736075589285e-21 7.507363374918514e-19  0.
-2.816094082428914e-21 7.46236367517453e-19  0.
-6.212576348873135e-21 7.385724657206315e-19  0.
-1.1743379360532002e-20 7.1621613773679325e-19  0.
-1.76708080597443e-20 6.913759927285782e-19  0.
-2.6056214238649176e-20 6.52248881750414e-19  0.
-3.8917781851889214e-20 5.911300574049195e-19  0.
-5.1563041522586607e-20 5.058021739253128e-19  0.
-6.762239209602053e-20 3.982032799159936e-19  0.
-2.0643991704392978e-19 4.0166874962489856e-19  0.
0.0 2.363412258262635e-17  0.
-2.3393003471299565e-22 2.363237820768085e-17  0.
3.447576521053753e-24 2.363220938231295e-17  0.
-7.710940251461529e-26 2.3632211052986544e-17  0.
-3.1180545681552126e-27 2.363221103150713e-17  0.
-2.698614648104533e-25 2.3632210742383647e-17  0.
-4.6970826443078406e-24 2.363220705968014e-17  0.
-6.71117720407205e-23 2.3632213678399946e-17  0.
-6.337201624687019e-22 2.3631411838970402e-17  0.
-3.0989554555561882e-21 2.3627273087258364e-17  0.
-1.2492844773364738e-20 2.3614367878613273e-17  0.
-3.167011293845173e-20 2.3573009036242297e-17  0.
-7.62194409963272e-20 2.3472363555891655e-17  0.
-1.6021590462607757e-19 2.3258731386936095e-17  0.
-3.045829366218051e-19 2.2829344748300416e-17  0.
-5.222587273356631e-19 2.2061755435937965e-17  0.
-8.3254045150279375e-19 2.078417122511105e-17  0.
-1.2092228052098745e-18 1.8873816712468657e-17  0.
-1.6437699570388938e-18 1.619880785951504e-17  0.
-2.17537044955235e-18 1.2843917782586117e-17  0.
-6.900872141896602e-18 1.3075891322771519e-17  0.
0.0 6.489705088525877e-16  0.
-3.667950538440999e-22 6.489759323794182e-16  0.
-2.2295897834613593e-23 6.48976521328031e-16  0.
-5.9958066692802335e-27 6.489765065389323e-16  0.
-3.057004786774483e-26 6.48976506541162e-16  0.
-5.259537158508092e-25 6.489765053007388e-16  0.
-2.1324220615386033e-22 6.489763237681456e-16  0.
-1.697242366327154e-21 6.489737980085303e-16  0.
-1.302659127378842e-20 6.489605416573558e-16  0.
-6.694075668101909e-20 6.488907932360195e-16  0.
-2.296262384590131e-19 6.486247276856294e-16  0.
-6.72847070728367e-19 6.478087821484154e-16  0.
-1.696399081431424e-18 6.456489877949637e-16  0.
-3.781899640042084e-18 6.406228789402561e-16  0.
-7.529967505164215e-18 6.302065268509813e-16  0.
-1.3518246945790563e-17 6.107532228202033e-16  0.
-2.209419269539643e-17 5.77755523110964e-16  0.
-3.306336884070649e-17 5.265633923919432e-16  0.
-4.561922174374783e-17 4.536054109460948e-16  0.
-6.139988933498585e-17 3.607738655851854e-16  0.
-1.9498992603827319e-16 3.6857273749879363e-16  0.
0.0 1.54496712349863e-14  0.
-1.651135292681295e-21 1.5449669781232093e-14  0.
3.520428855293294e-23 1.5449667850436046e-14  0.
-1.3396975046522907e-24 1.544966782743474e-14  0.
-1.0500724726652913e-26 1.5449667825839028e-14  0.
-4.588870052695074e-24 1.5449667820210335e-14  0.
-5.3523287711274e-22 1.5449667515723335e-14  0.
-1.676563930213378e-20 1.544965486156249e-14  0.
-1.5966557171457146e-19 1.5449511072376732e-14  0.
-8.572314380115439e-19 1.5448645581314836e-14  0.
-3.525699239752969e-18 1.5444823205430592e-14  0.
-1.1538527156126776e-17 1.5431473781830508e-14  0.
-3.196917443448062e-17 1.5392502764210512e-14  0.
-7.619322574082677e-17 1.529484150912028e-14  0.
-1.6025011698011098e-16 1.5080132599313387e-14  0.
-3.0025932602457505e-16 1.466011818741467e-14  0.
-5.078862465460152e-16 1.3920580729113237e-14  0.
-7.802510361892668e-16 1.2738933437555945e-14  0.
-1.0989059509927376e-15 1.101665939948505e-14  0.
-1.5053415786103918e-15 8.795447322862067e-15  0.
-4.780619142106501e-15 9.019644609666457e-15  0.
0.0 3.152925585949637e-13  0.
-1.1327095002382763e-21 3.152925478292891e-13  0.
-5.612265208280064e-23 3.1529255014546865e-13  0.
3.295893375904594e-24 3.1529255015075354e-13  0.
-1.026160147685486e-25 3.152925501507109e-13  0.
-3.2041047248046827e-23 3.1529255010574505e-13  0.
-3.3345518245813197e-21 3.1529254669025117e-13  0.
-9.711071705557674e-20 3.152924778657682e-13  0.
-1.0763146540083863e-18 3.152916309577172e-13  0.
-8.4177577621311e-18 3.1528400929952173e-13  0.
-4.1642910903771053e-17 3.152421475719236e-13  0.
-1.6043666948765045e-16 3.1506849327949764e-13  0.
-4.927548272288318e-16 3.1449777301814977e-13  0.
-1.2826054336860595e-15 3.129282131089856e-13  0.
-2.8697234359680505e-15 3.0922705017232584e-13  0.
-5.664921843786225e-15 3.015729414378841e-13  0.
-9.951706274133636e-15 2.8750412120151215e-13  0.
-1.5767922828319662e-14 2.6425799893311385e-13  0.
-2.2709076889711926e-14 2.2950903663841874e-13  0.
-3.1759138081901955e-14 1.8402177889203225e-13  0.
-1.0069749443676704e-13 1.8956045273379478e-13  0.
0.0 5.443970075672735e-12  0.
-7.947863329991267e-22 5.443970083831709e-12  0.
1.0808129645087943e-22 5.443970082470143e-12  0.
2.8286467210437377e-24 5.4439700824449675e-12  0.
-6.307090436461165e-26 5.44397008244991e-12  0.
-1.0992725139321855e-22 5.443970082235822e-12  0.
-2.011828831663627e-20 5.443970068622583e-12  0.
-3.852823519497621e-19 5.4439698311603236e-12  0.
-5.2078138843081774e-18 5.443966256113471e-12  0.
-5.279161744649187e-17 5.443925367220184e-12  0.
-3.7372522737094214e-16 5.443590764009432e-12  0.
-1.7092962008393804e-15 5.441883486713522e-12  0.
-6.131838692601272e-15 5.435266266780147e-12  0.
-1.7562556040987108e-14 5.414916784621286e-12  0.
-4.269718216660039e-14 5.362510544162387e-12  0.
-8.916945913258625e-14 5.24683271868331e-12  0.
-1.6427054647820423e-13 5.023080730573468e-12  0.
-2.689965096548061e-13 4.638864078808623e-12  0.
-3.9799730642406324e-13 4.0477650742560486e-12  0.
-5.693643433212301e-13 3.261466581269457e-12  0.
-1.7998592230125802e-12 3.37803983285075e-12  0.
0.0 7.829746670723157e-11  0.
-1.386983622664997e-21 7.829746671594394e-11  0.
3.775670375108459e-23 7.829746671628587e-11  0.
-4.839938462335377e-24 7.829746671651841e-11  0.
-4.1370777630735366e-24 7.829746671651782e-11  0.
-4.532570729089144e-22 7.829746671591462e-11  0.
-6.451049781741199e-20 7.829746668443042e-11  0.
-1.250212814661194e-18 7.82974660129372e-11  0.
-1.9613310560970732e-17 7.829745430677241e-11  0.
-2.399814579393153e-16 7.829729361335091e-11  0.
-2.1818375157099472e-15 7.829563293110911e-11  0.
-1.387732437621906e-14 7.828336402688169e-11  0.
-5.831034925826031e-14 7.822563467531901e-11  0.
-1.9333990428295366e-13 7.801802812896814e-11  0.
-5.129879553928271e-13 7.742436566906401e-11  0.
-1.1569468353155988e-12 7.600197547749928e-11  0.
-2.2400919343680465e-12 7.308218008544023e-11  0.
-3.825709682331331e-12 6.783552322943354e-11  0.
-5.82069454499723e-12 5.949573414322152e-11  0.
-8.5625348397205e-12 4.82131190388381e-11  0.
-2.6884170624911858e-11 5.026973517303717e-11  0.
0.0 9.20536526736231e-10  0.
-9.425681736013973e-22 9.205365267200892e-10  0.
-3.780380820602197e-22 9.205365267225676e-10  0.
9.705170259789768e-24 9.205365267222867e-10  0.
-1.071008587768486e-23 9.205365267222714e-10  0.
-3.51657128156138e-21 9.205365267192504e-10  0.
-1.6480016730378204e-19 9.205365266466863e-10  0.
-3.4546468474700696e-18 9.2053652500661e-10  0.
-6.047625609697216e-17 9.205364936462213e-10  0.
-8.510623835835084e-16 9.205360023951784e-10  0.
-9.280855959315016e-15 9.205299529435955e-10  0.
-7.488092357830717e-14 9.20474118920654e-10  0.
-4.235031922625194e-13 9.201056496256449e-10  0.
-1.6218045410011413e-12 9.18519588004842e-10  0.
-4.926869826104342e-12 9.132708652480749e-10  0.
-1.2012890342425427e-11 8.994233475567861e-10  0.
-2.4924944349545076e-11 8.68803082100155e-10  0.
-4.439560972699003e-11 8.108228437924151e-10  0.
-7.004243279134015e-11 7.151238563445841e-10  0.
-1.0610339811209539e-10 5.834288250881643e-10  0.
-3.298149899153133e-10 6.135267011045829e-10  0.
0.0 8.645885328408224e-09  0.
-6.57186247568349e-21 8.645885328399364e-09  0.
1.3680689776885304e-21 8.645885328396382e-09  0.
-6.533451489080012e-23 8.645885328397407e-09  0.
4.1454824955806606e-23 8.645885328397375e-09  0.
-1.0754818781535181e-20 8.645885328392306e-09  0.
-3.66443260262059e-19 8.64588532825437e-09  0.
-8.262880118498852e-18 8.645885324875586e-09  0.
-1.5779607489241528e-16 8.645885254106216e-09  0.
-2.471013024634782e-15 8.645884028037136e-09  0.
-3.0842242117704186e-14 8.645866895434816e-09  0.
-2.961546354746497e-13 8.645679886897954e-09  0.
-2.093377665689808e-12 8.64415714711829e-09  0.
-1.0396829203615189e-11 8.635297944699561e-09  0.
-3.593417160079484e-11 8.600762783424201e-09  0.
-9.892012416386056e-11 8.49669115789561e-09  0.
-2.1945972181882554e-10 8.245872083631039e-09  0.
-4.1476118059667873e-10 7.739338432461735e-09  0.
-6.772109874133278e-10 6.8673434364721905e-09  0.
-1.0657525189770096e-09 5.648931511035999e-09  0.
-3.248990856267857e-09 6.005226069609853e-09  0.
0.0 6.304655474434162e-08  0.
-6.5235481384044454e-21 6.30465547443472e-08  0.
1.1143067520247777e-21 6.304655474434564e-08  0.
-6.286289146649561e-23 6.304655474434414e-08  0.
7.634835140685458e-23 6.304655474434413e-08  0.
-2.3168055934282878e-20 6.304655474433692e-08  0.
-7.238940099659684e-19 6.304655474410671e-08  0.
-1.7405667928070368e-17 6.304655473798512e-08  0.
-3.561573783795107e-16 6.304655460122252e-08  0.
-6.060693652138299e-15 6.304655203863337e-08  0.
-8.382905561779379e-14 6.304651258549846e-08  0.
-9.162778845386928e-13 6.304602637430192e-08  0.
-7.635841565135986e-12 6.30413855168766e-08  0.
-4.654105807218008e-11 6.300855104614275e-08  0.
-1.9994219302375487e-10 6.28428987625778e-08  0.
-6.160911031796368e-10 6.226566691715992e-08  0.
-1.5152295113919417e-09 6.070338368863236e-08  0.
-3.02279096468257e-09 5.731039172135771e-08  0.
-5.179451701737422e-09 5.117878283929235e-08  0.
-8.458715822859431e-09 4.253381469655173e-08  0.
-2.505992726574213e-08 4.589460073505112e-08  0.
0.0 3.443494438718261e-07  0.
-1.2480083858092008e-21 3.4434944387183775e-07  0.
3.205076916366393e-22 3.4434944387183246e-07  0.
-5.813495565758564e-23 3.443494438718342e-07  0.
-6.845950036130236e-23 3.4434944387183373e-07  0.
-4.1394973349609445e-20 3.4434944387182505e-07  0.
-1.2958396614765294e-18 3.443494438714608e-07  0.
-3.2663005794017854e-17 3.443494438617502e-07  0.
-7.061248000500654e-16 3.443494436330324e-07  0.
-1.282497784896547e-14 3.4434943907632176e-07  0.
-1.9202303388423083e-13 3.4434936349171253e-07  0.
-2.3146218086708456e-12 3.443483421478023e-07  0.
-2.1810848721436294e-11 3.4433739939678746e-07  0.
-1.5491163974029773e-10 3.442476094175213e-07  0.
-7.980315217172586e-10 3.4370635583905184e-07  0.
-2.911599391410947e-09 3.4138822613372065e-07  0.
-7.872098989069147e-09 3.3429475093665447e-07  0.
-1.6997573097322164e-08 3.173948688111118e-07  0.
-3.0373779907195405e-08 2.8530285920289186e-07  0.
-5.200726857401198e-08 2.403665233809964e-07  0.
-1.4620234779212802e-07 2.6466533557230487e-07  0.
0.0 1.3468644365495663e-06  0.
8.635493298891555e-22 1.3468644365495608e-06  0.
1.253486891492259e-21 1.346864436549568e-06  0.
1.062605999434266e-22 1.346864436549566e-06  0.
-3.9690726053761017e-22 1.346864436549566e-06  0.
-6.680627054357355e-20 1.346864436549549e-06  0.
-2.103249476164743e-18 1.346864436549081e-06  0.
-5.506189024281266e-17 1.3468644365355348e-06  0.
-1.242576247877943e-15 1.3468644362040836e-06  0.
-2.3746625869116744e-14 1.3468644292764356e-06  0.
-3.779421198190492e-13 1.3468643075823461e-06  0.
-4.908158061954387e-12 1.3468625434985377e-06  0.
-5.0701154891382647e-11 1.3468419375577612e-06  0.
-4.0378439590894195e-10 1.3466534213015392e-06  0.
-2.387926189006181e-09 1.3453525456448324e-06  0.
-1.013251183157651e-08 1.338845590545093e-06  0.
-3.071012236084992e-08 1.3158538519982463e-06  0.
-7.144834167310896e-08 1.2557851299655954e-06  0.
-1.3465428582747176e-07 1.1359036071584113e-06  0.
-2.4061263811639415e-07 9.756822044507554e-07  0.
-6.210897753509162e-07 1.1057729557049088e-06  0.
0.0 3.593035559757822e-06  0.
-3.2192920628379626e-21 3.5930355597578095e-06  0.
2.363895820045632e-21 3.593035559757807e-06  0.
1.4727668485053435e-21 3.593035559757815e-06  0.
-8.462901154836482e-22 3.5930355597578155e-06  0.
-9.903485896902249e-20 3.593035559757796e-06  0.
-3.0991298809307628e-18 3.593035559757233e-06  0.
-8.373371713928176e-17 3.5930355597409405e-06  0.
-1.953250837220894e-15 3.5930355593289805e-06  0.
-3.881322177928553e-14 3.5930355503944253e-06  0.
-6.471134661769328e-13 3.5930353863574005e-06  0.
-8.888039153507092e-12 3.593032879743198e-06  0.
-9.833119916513655e-11 3.593001623050607e-06  0.
-8.520607755667294e-10 3.5926919305018582e-06  0.
-5.589076814152439e-09 3.5903277421031443e-06  0.
-2.6691958157282575e-08 3.577002661525588e-06  0.
-9.026836847604927e-08 3.523771448223928e-06  0.
-2.2243615602589534e-07 3.375515760769793e-06  0.
-4.448349752654337e-07 3.071583666336073e-06  0.
-8.201616422203126e-07 2.7198895463432135e-06  0.
-1.840057354430626e-06 3.201022491591392e-06  0.
0.0 6.434301497375247e-06  0.
-5.86226659652664e-21 6.434301497375256e-06  0.
1.837636911220179e-21 6.43430149737526e-06  0.
1.4143160592252478e-21 6.434301497375257e-06  0.
-1.856592041635965e-21 6.434301497375256e-06  0.
-1.3054103680374026e-19 6.434301497375242e-06  0.
-4.176755024149329e-18 6.434301497374688e-06  0.
-1.1529603915300487e-16 6.434301497358063e-06  0.
-2.7567876529309326e-15 6.434301496927787e-06  0.
-5.63843536085443e-14 6.434301487331917e-06  0.
-9.727078414215104e-13 6.434301305320668e-06  0.
-1.391790427551548e-11 6.434298412046877e-06  0.
-1.6181530396542612e-10 6.434260596662176e-06  0.
-1.4903798742981672e-09 6.43386293709837e-06  0.
-1.0535887112438078e-08 6.4306004582289704e-06  0.
-5.5025569711898096e-08 6.4104418096660305e-06  0.
-2.0404219870309261e-07 6.3214555127984115e-06  0.
-5.318446556563007e-07 6.057443295535241e-06  0.
-1.0831657380102962e-06 5.561448579923944e-06  0.
-2.0429484796058633e-06 5.188886530545131e-06  0.
-3.6799904960753493e-06 6.286483268417981e-06  0.
0.0 8.690091760756674e-06  0.
-5.427610555208552e-22 8.690091760756689e-06  0.
9.221292263852637e-22 8.690091760756682e-06  0.
1.552025958731333e-21 8.690091760756692e-06  0.
-2.9720223294531936e-21 8.690091760756687e-06  0.
-1.60450088920132e-19 8.690091760756674e-06  0.
-5.15225784367928e-18 8.690091760756215e-06  0.
-1.444768491290996e-16 8.690091760742423e-06  0.
-3.5140414481397795e-15 8.690091760379629e-06  0.
-7.331796224512926e-14 8.690091752134466e-06  0.
-1.2948385027479719e-12 8.690091592185274e-06  0.
-1.905248608193744e-11 8.690088981866698e-06  0.
-2.2912865391736672e-10 8.690053725091541e-06  0.
-2.1996664902872178e-09 8.689668159836205e-06  0.
-1.6368614853824843e-08 8.686336427956446e-06  0.
-9.104709260939618e-08 8.66441429706296e-06  0.
-3.629115142842525e-07 8.559694073772447e-06  0.
-1.0038698070567687e-06 8.228997273778135e-06  0.
-2.0258752206981646e-06 7.693307394554112e-06  0.
-3.608837720009279e-06 7.726597611985706e-06  0.
-5.145891782841616e-06 9.096397849955773e-06  0.
0.0 1.1041135460022849e-05  0.
1.0141821276345612e-21 1.104113546002285e-05  0.
2.252719019727484e-21 1.1041135460022852e-05  0.
2.5912956187908493e-21 1.1041135460022842e-05  0.
-2.240184807030779e-21 1.1041135460022842e-05  0.
-1.8189794678894488e-19 1.1041135460022836e-05  0.
-5.844888526413916e-18 1.104113546002258e-05  0.
-1.6527877345343489e-16 1.1041135460014707e-05  0.
-4.060674607033722e-15 1.1041135459805672e-05  0.
-8.571943748183987e-14 1.10411354550018e-05  0.
-1.5347991313102095e-12 1.1041135360612267e-05  0.
-2.295515603462633e-11 1.1041133795716283e-05  0.
-2.81565936555104e-10 1.1041112270336794e-05  0.
-2.7692332940203107e-09 1.104087110815663e-05  0.
-2.1240864291472535e-08 1.1038726692432181e-05  0.
-1.2276626770690582e-07 1.1024028226042527e-05  0.
-5.134900373647529e-07 1.0950324788913e-05  0.
-1.4922991610519838e-06 1.0707847238543375e-05  0.
-2.977416153020884e-06 1.0353550410656696e-05  0.
-4.497424981090341e-06 1.071507894837367e-05  0.
-5.838041178478049e-06 1.156398233983012e-05  0.
0.0 1.3450000000000036e-05  0.
4.321246255314355e-22 1.3450000000000036e-05  0.
2.7024985424109823e-21 1.3450000000000036e-05  0.
2.2558525729016567e-21 1.3450000000000036e-05  0.
-1.1687389058413119e-21 1.3450000000000036e-05  0.
-1.8741552250365853e-19 1.3450000000000036e-05  0.
-6.099476849647368e-18 1.3450000000000036e-05  0.
-1.7283467372192337e-16 1.3450000000000036e-05  0.
-4.260499868156278e-15 1.3450000000000036e-05  0.
-9.028526017542972e-14 1.3450000000000036e-05  0.
-1.6238654506199341e-12 1.3450000000000036e-05  0.
-2.4418331087320217e-11 1.3450000000000036e-05  0.
-3.014540739517091e-10 1.3450000000000036e-05  0.
-2.988643141309925e-09 1.3450000000000036e-05  0.
-2.315332643309471e-08 1.3450000000000036e-05  0.
-1.3558507184732446e-07 1.3450000000000036e-05  0.
-5.768795961353752e-07 1.3450000000000036e-05  0.
-1.7092636179968827e-06 1.3450000000000036e-05  0.
-3.396229507271277e-06 1.3450000000000036e-05  0.
-4.614248402848594e-06 1.3450000000000036e-05  0.
-6.056969532411359e-06 1.3450000000000036e-05  0.
</DataArray>
<DataArray type="Float64" Name="sigma_xx" NumberOfComponents="1" format="ascii" >
0.0 
0.0 
0.0 
0.0 
0.0 
0.0 
0.0 
0.0 
0.0 
0.0 
0.0 
0.0 
0.0 
0.0 
0.0 
0.0 
0.0 
0.0 
0.0 
0.0 
0.0 
0.0 
0.0 
0.0 
0.0 
0.0 
0.0 
0.0 
0.0 
0.0 
0.0 
0.0 
0.0 
0.0 
0.0 
0.0 
0.0 
0.0 
0.0 
0.0 
0.0 
0.0 
0.0 
0.0 
0.0 
0.0 
0.0 
0.0 
0.0 
0.0 
0.0 
0.0 
0.0 
0.0 
0.0 
0.0 
0.0 
0.0 
0.0 
0.0 
0.0 
0.0 
0.0 
1.8651746813702624e-06 
1.8651746813702624e-06 
1.8651746813702624e-06 
1.8651746813702624e-06 
1.8651746813702624e-06 
1.8651746813702624e-06 
1.8651746813702624e-06 
1.8651746813702624e-06 
1.8651746813702624e-06 
1.8651746813702624e-06 
1.8651746813702624e-06 
1.8651746813702624e-06 
1.8651746813702624e-06 
1.8651746813702624e-06 
1.8651746813702624e-06 
1.8651746813702624e-06 
1.7152945730458664e-06 
1.5598633495983445e-06 
1.4765966227514578e-06 
1.1046719095020303e-06 
8.104628079763639e-07 
6.590283874174927e-05 
6.590283874174927e-05 
6.590283874174927e-05 
6.590283874174927e-05 
6.590283874174927e-05 
6.590283874174927e-05 
6.590283874174927e-05 
6.590283874174927e-05 
6.590283874174927e-05 
6.590283874174927e-05 
6.58251231300255e-05 
6.559752740997735e-05 
6.52200515816048e-05 
6.452616219121407e-05 
6.29829521869851e-05 
6.059597268404102e-05 
5.6815663285192366e-05 
5.1231241471327835e-05 
4.362621375264551e-05 
3.103628465339624e-05 
2.293720768875572e-05 
0.0018148149649732652 
0.0018148149649732652 
0.0018148149649732652 
0.0018148149649732652 
0.0018148149649732652 
0.0018148149649732652 
0.0018148149649732652 
0.0018148149649732652 
0.0018147428004766646 
0.0018143708757634152 
0.0018127832568382012 
0.0018087531472588119 
0.001799449478312453 
0.0017796986107043715 
0.0017427226328692307 
0.00167873492884496 
0.0015762280369813193 
0.0014249434965307724 
0.001215388900632774 
0.0008711198429267593 
0.0006474265568101596 
0.04319278268383185 
0.04319278268383185 
0.04319278268383185 
0.04319278268383185 
0.04319278268383185 
0.04319278268383185 
0.04319278268383185 
0.043192488474730326 
0.04319070101566068 
0.04318306268125126 
0.04315700019574818 
0.04308324252910721 
0.04290012789454066 
0.04249633422936937 
0.041700010111611605 
0.04027326805378094 
0.037934988483812035 
0.03440773221896619 
0.029435026638324747 
0.02111933405934962 
0.01568243312988215 
0.8810022045224738 
0.8810022045224738 
0.8810022045224738 
0.8810022045224738 
0.8810022045224738 
0.8810022045224738 
0.8810020546423655 
0.8809995455383298 
0.8809815377208704 
0.8808926421632887 
0.8805437545778002 
0.879438533107901 
0.8764576620023942 
0.8694855557767053 
0.8550181618272032 
0.828084245618754 
0.7825753933765609 
0.7122595069297686 
0.6111417427678842 
0.43874706090463156 
0.32537577077107455 
15.199857461567484 
15.199857461567483 
15.199857461567483 
15.199857461567483 
15.199857461567483 
15.199857461567483 
15.199856728820286 
15.199844760616081 
15.199730246662206 
15.198942282523824 
15.195292085712346 
15.181951368292694 
15.142463810624555 
15.042701395628905 
14.823884408876603 
14.397744707572707 
13.652965635824184 
12.470928822949642 
10.733606964352656 
7.707800964151797 
5.704086303293106 
218.35010288739903 
218.35010288739903 
218.35010288739903 
218.35010288739903 
218.35010288739903 
218.35010281523455 
218.35009982318348 
218.35005367676348 
218.3495135477109 
218.34479396742876 
218.31554247730972 
218.19117332344535 
217.77100452924353 
216.61630643654553 
213.90049617653332 
208.34691510929198 
198.25265050454894 
181.76335534747506 
156.9333595491384 
112.65447844577275 
83.1389221411793 
2562.261160021783 
2562.261160021783 
2562.261160021783 
2562.261160021783 
2562.261160021783 
2562.261159583245 
2562.2611504017004 
2562.2610010711524 
2562.2589911067353 
2562.238044212516 
2562.076077594621 
2561.184943250527 
2557.738156894195 
2547.0695720702915 
2520.0636100675124 
2461.384854401948 
2350.2760202770414 
2162.792233589838 
1873.0273484479635 
1342.800909864827 
986.3215664873687 
23989.415105818418 
23989.415105896132 
23989.415105973847 
23989.415105973847 
23989.415105973847 
23989.415104880278 
23989.41508220952 
23989.414671393693 
23989.408512270486 
23989.335191176844 
23988.665144369916 
23984.144908795184 
23962.360413370956 
23886.55644395553 
23674.069150064748 
23183.593500095125 
22208.334891923856 
20509.648188313236 
17808.763798379805 
12728.959990840332 
9290.68690774803 
173961.3045278698 
173961.3045279475 
173961.30452802524 
173961.30452802524 
173961.30452802524 
173961.3045259269 
173961.30447633323 
173961.30349501822 
173961.2874826601 
173961.07620471495 
173958.8838800043 
173941.59139896274 
173841.56620888482 
173426.27726824593 
172145.16548028353 
168942.8480210558 
162290.25616099063 
150302.8149906937 
130730.29756306138 
92888.12078367954 
67031.84634413436 
940199.818016629 
940199.818016629 
940199.818016629 
940199.818016629 
940199.8180166346 
940199.8180127377 
940199.8179138224 
940199.8158474697 
940199.7797903457 
940199.2639952501 
940193.3604720576 
940140.8739645758 
939790.7100588239 
938092.957150707 
932149.4872119554 
916226.503866757 
881486.5001883107 
817477.0360822006 
710541.383958793 
499117.6483900903 
353985.93741471897 
3597725.7384073967 
3597725.7384073967 
3597725.7384073967 
3597725.7384073967 
3597725.738407258 
3597725.738400325 
3597725.738222684 
3597725.734347294 
3597725.663001676 
3597724.5753653618 
3597711.1392055238 
3597580.169381738 
3596604.5956328646 
3591247.3062568684 
3570140.6581294546 
3509640.6479864414 
3373164.3385727224 
3120019.605512793 
2695008.89351491 
1850587.5122461512 
1270614.7880271573 
9113262.023351539 
9113262.023351539 
9113262.023351539 
9113262.023351539 
9113262.02335125 
9113262.023340054 
9113262.023052057 
9113262.016531695 
9113261.891296055 
9113259.884641752 
9113233.585311616 
9112958.431930501 
9110728.760420136 
9097232.91940812 
9038540.149682904 
8858948.421046453 
8454906.186380526 
7719049.494874461 
6528261.330774529 
4263612.65935969 
2725521.82507884 
14281554.385472246 
14281554.385472246 
14281554.385472246 
14281554.385472246 
14281554.385471884 
14281554.38545593 
14281554.38503101 
14281554.375134582 
14281554.178732753 
14281550.909066256 
14281506.078394849 
14281011.22474539 
14276737.396701291 
14248880.761111286 
14117747.713391095 
13691673.402507743 
12746151.442486979 
11158273.011525027 
8801087.88337323 
5032384.736155794 
2659533.069710065 
14308609.231950514 
14308609.231950516 
14308609.231950516 
14308609.231950516 
14308609.231949937 
14308609.231929086 
14308609.23135667 
14308609.217736902 
14308608.94077231 
14308604.197105784 
14308536.952511467 
14307764.843804613 
14300777.36321187 
14252665.02740003 
14012021.074859878 
13187795.044081438 
11365078.630664304 
8685459.466232719 
5325990.021907406 
1819837.8161384834 
190836.02634094842 
12928859.884740192 
12928859.884740114 
12928859.884740036 
12928859.884740036 
12928859.884739248 
12928859.88471394 
12928859.884007562 
12928859.866942162 
12928859.51398108 
12928853.348779108 
12928763.921850294 
12927708.900692983 
12917849.175572813 
12847331.333749315 
12478988.336065177 
11162787.740504356 
8225276.145377977 
4478006.1190081155 
1245800.7710326933 
-344552.4146046175 
-521945.82094292855 
13359467.167455215 
13359467.167455137 
13359467.167455059 
13359467.167455059 
13359467.167454055 
13359467.167425582 
13359467.166624796 
13359467.14710607 
13359466.739347454 
13359459.5342839 
13359353.605238885 
13358083.90321096 
13345991.979999796 
13257549.879355237 
12783292.24572306 
11040583.69787991 
7097982.142724556 
2585498.417563353 
813373.973635742 
206384.91649345192 
-544333.5474046818 
13522136.142755233 
13522136.142755233 
13522136.142755233 
13522136.142755233 
13522136.142754078 
13522136.14272438 
13522136.141889414 
13522136.121480305 
13522135.69370801 
13522128.106139624 
13522016.057312194 
13520665.947958779 
13507728.331331188 
13412393.988223128 
12896669.963126613 
10982851.950204082 
6625229.364154153 
1838799.3826488005 
1043242.7677500932 
338273.2200561594 
-1481683.0624257335 
</DataArray>
<DataArray type="Float64" Name="sigma_yy" NumberOfComponents="1" format="ascii" >
0.0 
0.0 
0.0 
0.0 
0.0 
0.0 
0.0 
0.0 