<?xml version="1.0"?>
<VTKFile type="UnstructuredGrid" version="0.1" byte_order="LittleEndian" compressor="vtkZLibDataCompressor">
<UnstructuredGrid>
<Piece NumberOfPoints="441" NumberOfCells="400">
<PointData>
<DataArray type="Float64" Name="displacement" NumberOfComponents="3" format="ascii" >
0.0 7.685684869159145e-16  0.
1.6110859817070643e-21 7.685671126102647e-16  0.
-1.4781684147717908e-22 7.685690295493581e-16  0.
-2.2134663933542184e-21 7.685672652682755e-16  0.
-6.44079691213038e-21 7.685517839163719e-16  0.
-1.2681064907058925e-20 7.685310634193595e-16  0.
-4.847468715461041e-20 7.684861368675899e-16  0.
-1.3211793894203245e-19 7.683128486897837e-16  0.
-3.2800412271682316e-19 7.679051409416206e-16  0.
-7.491822220872889e-19 7.669365937877693e-16  0.
-1.578411335583638e-18 7.64828082548453e-16  0.
-3.0725699817166125e-18 7.605899765233311e-16  0.
-5.611045261605731e-18 7.526737261255165e-16  0.
-9.529599144960782e-18 7.388549031397893e-16  0.
-1.517233002519304e-17 7.162547322918922e-16  0.
-2.2725485724027017e-17 6.815445004933402e-16  0.
-3.201683719660192e-17 6.31349754635479e-16  0.
-4.26037715196638e-17 5.628529550825838e-16  0.
-5.3736223993946053e-17 4.746485806932573e-16  0.
-6.839512476345157e-17 3.705890993501188e-16  0.
-1.8229798462281692e-16 3.7228094583272476e-16  0.
0.0 5.900353359260356e-15  0.
-3.118143048948823e-21 5.900356773118472e-15  0.
-1.33436824857643e-21 5.900354978677442e-15  0.
-4.5096629618948004e-21 5.90035077564155e-15  0.
-2.345946010692121e-20 5.900329785640495e-15  0.
-8.138772751721304e-20 5.900246846789114e-15  0.
-2.6049177392675745e-19 5.899958880068186e-15  0.
-7.746315149649832e-19 5.899084655717163e-15  0.
-2.045430907218141e-18 5.896696476838039e-15  0.
-4.904873320040788e-18 5.890736638974289e-15  0.
-1.0763171377374613e-17 5.8772237266686654e-15  0.
-2.1771604706394006e-17 5.8490234596578686e-15  0.
-4.075433501057837e-17 5.794576882944555e-15  0.
-7.101487432944676e-17 5.696901056785954e-15  0.
-1.1552079272654232e-16 5.533372960114994e-15  0.
-1.7601864066501097e-16 5.277152161625105e-15  0.
-2.518192886766677e-16 4.900364723298587e-15  0.
-3.3905416571325154e-16 4.379198895868555e-15  0.
-4.316233892804064e-16 3.7010878483810815e-15  0.
-5.539299049220718e-16 2.904293953082066e-15  0.
-1.5990767645041971e-15 2.9728722844692963e-15  0.
0.0 8.03726787207156e-14  0.
-4.556835614889996e-21 8.037267839650301e-14  0.
-5.7426119380999335e-21 8.037266451581373e-14  0.
-3.1212941637461377e-20 8.037263701482465e-14  0.
-1.6661339404695497e-19 8.037249699733394e-14  0.
-6.819872862165826e-19 8.037183899130952e-14  0.
-2.44646106761825e-18 8.036933457350201e-14  0.
-7.741761973885838e-18 8.036105631208872e-14  0.
-2.1720843587917182e-17 8.033680107385214e-14  0.
-5.488681941055689e-17 8.027308604386086e-14  0.
-1.2590929281715469e-16 8.012143279781137e-14  0.
-2.6441975122199427e-16 7.979177302626012e-14  0.
-5.113691914007907e-16 7.913283765776766e-14  0.
-9.15630375206796e-16 7.791505965447669e-14  0.
-1.5243484097596419e-15 7.582478865370376e-14  0.
-2.368012296270644e-15 7.24796237617428e-14  0.
-3.4426107994354213e-15 6.74728976693092e-14  0.
-4.6959710485411e-15 6.044687696381944e-14  0.
-6.040414865821594e-15 5.120137361802289e-14  0.
-7.825946170487932e-15 4.026949117679451e-14  0.
-2.2511039004911037e-14 4.1405186554746716e-14  0.
0.0 9.755073993525364e-13  0.
-6.839472207621393e-21 9.755073932377545e-13  0.
-2.328950114966107e-20 9.75507382277623e-13  0.
-1.8506353366953914e-19 9.755072283292624e-13  0.
-1.0426774674730081e-18 9.755063489153348e-13  0.
-4.877153220658423e-18 9.75501924314097e-13  0.
-1.937934034775809e-17 9.754832970941843e-13  0.
-6.637168149682331e-17 9.754160240724915e-13  0.
-1.996134379306179e-16 9.75203769008454e-13  0.
-5.342579956820093e-16 9.746102457608332e-13  0.
-1.2875451760568587e-15 9.731208787965957e-13  0.
-2.818462383666008e-15 9.69734840840931e-13  0.
-5.646998963732724e-15 9.6270410194833e-13  0.
-1.041699810995062e-14 9.49284866911583e-13  0.
-1.7783588538675965e-14 9.256145245518328e-13  0.
-2.8210042511658906e-14 8.868584651176399e-13  0.
-4.172634505881662e-14 8.277403223018857e-13  0.
-5.771780568807899e-14 7.434850682825016e-13  0.
-7.509563179621526e-14 6.312814255095432e-13  0.
-9.852826487680155e-14 4.980052743707031e-13  0.
-2.807773153240823e-13 5.144133770480708e-13  0.
0.0 1.0425435462971236e-11  0.
-1.7051969846095315e-20 1.0425435456207523e-11  0.
-1.0909248884439663e-19 1.0425435382368522e-11  0.
-8.684190316070596e-19 1.0425434763038166e-11  0.
-5.539170060094895e-18 1.042543047019108e-11  0.
-2.934497793500634e-17 1.0425405938806694e-11  0.
-1.2933762534086722e-16 1.0425290151377645e-11  0.
-4.852068127465605e-16 1.042482864483927e-11  0.
-1.5744078933849925e-15 1.0423247254480057e-11  0.
-4.4955805304251955e-15 1.0418504665604156e-11  0.
-1.1435772978647899e-14 1.040588447856699e-11  0.
-2.620878721108363e-14 1.0375731970243658e-11  0.
-5.4569860246695594e-14 1.0310449501563199e-11  0.
-1.0399048462878997e-13 1.018137239350345e-11  0.
-1.8240337088394118e-13 9.946849460044364e-12  0.
-2.959528371259909e-13 9.553243424200568e-12  0.
-4.4591050352069874e-13 8.940447979443447e-12  0.
-6.260986108627704e-13 8.052476597237448e-12  0.
-8.246663621099198e-13 6.854882886666718e-12  0.
-1.0972166385547342e-12 5.426753665708092e-12  0.
-3.0904253892779088e-12 5.636260834662599e-12  0.
0.0 9.719980786588068e-11  0.
-4.6375665220414775e-20 9.719980783994691e-11  0.
-4.0704563136107e-19 9.719980759381268e-11  0.
-3.4626583948499877e-18 9.719980532813684e-11  0.
-2.4701624907460573e-17 9.719978787153989e-11  0.
-1.468368812501139e-16 9.719967574464396e-11  0.
-7.249190026655598e-16 9.719907846603019e-11  0.
-2.9961559153309833e-15 9.719643344237788e-11  0.
-1.0579242377155224e-14 9.718649903427281e-11  0.
-3.2406319308549006e-14 9.715432601336574e-11  0.
-8.751737183707564e-14 9.706295383130352e-11  0.
-2.1080887358774785e-13 9.683242450568893e-11  0.
-4.577887536971882e-13 9.630988763643436e-11  0.
-9.034044178150462e-13 9.523633111939844e-11  0.
-1.631639126302011e-12 9.322220315229566e-11  0.
-2.7117672409792185e-12 8.975076371802753e-11  0.
-4.1671499895940974e-12 8.422668210328742e-11  0.
-5.944318556463834e-12 7.607943400863257e-11  0.
-7.93351967932514e-12 6.494462642513098e-11  0.
-1.0720133766611771e-11 5.1629257715192324e-11  0.
-2.975371815599205e-11 5.3976369934595775e-11  0.
0.0 7.821216912576152e-10  0.
-1.2463528233396143e-19 7.821216912163311e-10  0.
-1.298418146519321e-18 7.821216905056021e-10  0.
-1.197387976694842e-17 7.821216833603501e-10  0.
-9.39909015640617e-17 7.821216230108118e-10  0.
-6.193556157244184e-16 7.821211933179355e-10  0.
-3.4022492938871004e-15 7.821186407521982e-10  0.
-1.5582886773088628e-14 7.82106021685135e-10  0.
-6.009660135146118e-14 7.820538518056041e-10  0.
-1.987881816684003e-13 7.818701248882582e-10  0.
-5.722717821950609e-13 7.813103586122077e-10  0.
-1.4553020387015538e-12 7.798116342042799e-10  0.
-3.305331087905991e-12 7.762421203441555e-10  0.
-6.772900701256495e-12 7.685986046522165e-10  0.
-1.2616440671317848e-11 7.537583717967904e-10  0.
-2.1510331950065652e-11 7.274464217525719e-10  0.
-3.3742551678172714e-11 6.845985455530152e-10  0.
-4.8939482836899377e-11 6.202227267682769e-10  0.
-6.6234843118774e-11 5.310376739207658e-10  0.
-9.105259090469729e-11 4.243092360969735e-10  0.
-2.4803725691595635e-10 4.4717984066043926e-10  0.
0.0 5.363607167195109e-09  0.
-3.2511513958569498e-19 5.363607167055458e-09  0.
-3.6723058586430694e-18 5.3636071651831985e-09  0.
-3.649831496710199e-17 5.363607145430997e-09  0.
-3.1044724153817414e-16 5.363606964797198e-09  0.
-2.2366340045282496e-15 5.363605560736e-09  0.
-1.3520514814282555e-14 5.363596377597674e-09  0.
-6.82328135902547e-14 5.3635462274980794e-09  0.
-2.8830066210235697e-13 5.363317538906678e-09  0.
-1.0317082768632507e-12 5.3624401241775e-09  0.
-3.17951191796371e-12 5.35955967106976e-09  0.
-8.556696751382085e-12 5.3513495866190376e-09  0.
-2.0384313743752837e-11 5.33073827262868e-09  0.
-4.343715579953724e-11 5.28463751784721e-09  0.
-8.358012448497328e-11 5.1918477431522255e-09  0.
-1.4628255372208903e-10 5.022421044814378e-09  0.
-2.3439251762426765e-10 4.739864453880701e-09  0.
-3.457457308326663e-10 4.307254406091236e-09  0.
-4.748457439377443e-10 3.6999102679833544e-09  0.
-6.652812858889609e-10 2.9751977049999e-09  0.
-1.7694377443300865e-09 3.1670911941866156e-09  0.
0.0 3.088559864628084e-08  0.
-7.767456106833121e-19 3.0885598645951826e-08  0.
-9.393714791518291e-18 3.0885598641651016e-08  0.
-9.91158791171439e-17 3.088559859307863e-08  0.
-9.032336562540327e-16 3.088559811825069e-08  0.
-7.0247231609369274e-15 3.088559414106682e-08  0.
-4.6153430669540435e-14 3.0885565900552624e-08  0.
-2.542041195270995e-13 3.0885397431012264e-08  0.
-1.170684779067892e-12 3.088455768840924e-08  0.
-4.53332821350199e-12 3.088105078323731e-08  0.
-1.495427941468901e-11 3.086865372278461e-08  0.
-4.2657159202721004e-11 3.083098510451859e-08  0.
-1.0663944172373863e-10 3.0731231466730424e-08  0.
-2.365194954449356e-10 3.049797252881967e-08  0.
-4.700832709335303e-10 3.0011130505485213e-08  0.
-8.446000028609053e-10 2.909566085021146e-08  0.
-1.3816613424952029e-09 2.7532720668213012e-08  0.
-2.072075842476412e-09 2.509578798766703e-08  0.
-2.8882966433701054e-09 2.1634131569587996e-08  0.
-4.132007341753162e-09 1.754214839901817e-08  0.
-1.0654060384047992e-08 1.8911847977002267e-08  0.
0.0 1.4670534659903036e-07  0.
-1.7167466450706942e-18 1.4670534659841245e-07  0.
-2.176859655088817e-17 1.467053465894019e-07  0.
-2.423926899135705e-16 1.4670534648226345e-07  0.
-2.3429900869913017e-15 1.4670534537359206e-07  0.
-1.9452675130858834e-14 1.46705335479174e-07  0.
-1.3730337164775756e-13 1.4670526011312605e-07  0.
-8.163618582718677e-13 1.467047750972954e-07  0.
-4.0643418193397225e-12 1.4670215809780632e-07  0.
-1.69465023672245e-11 1.466903540982578e-07  0.
-5.967822300671197e-11 1.4664559886470264e-07  0.
-1.8002951390751812e-10 1.4650112262070489e-07  0.
-4.715900887535262e-10 1.4609841831322182e-07  0.
-1.0867259564203203e-09 1.4511619159128947e-07  0.
-2.2273464138576624e-09 1.4299486304956143e-07  0.
-4.099983113347991e-09 1.3889645711166106e-07  0.
-6.834353960170684e-09 1.3175111887364035e-07  0.
-1.040145282817846e-08 1.2043620643038132e-07  0.
-1.4707535560399254e-08 1.04238406895497e-07  0.
-2.1518760822071163e-08 8.549692688884405e-08  0.
-5.327567385855473e-08 9.369602517075433e-08  0.
0.0 5.625477999970971e-07  0.
-3.4826487531230124e-18 5.625477999959623e-07  0.
-4.618763349319863e-17 5.625477999787526e-07  0.
-5.382102019416306e-16 5.625477997653281e-07  0.
-5.4705643940038315e-15 5.625477974473559e-07  0.
-4.8023035214872606e-14 5.625477756144956e-07  0.
-3.6038005309234364e-13 5.625475991068549e-07  0.
-2.2889180611905517e-12 5.625463870056076e-07  0.
-1.220368734786113e-11 5.625393839367161e-07  0.
-5.440470952084227e-11 5.625055527634849e-07  0.
-2.0346421018879433e-10 5.623689182359234e-07  0.
-6.455489511118912e-10 5.619036109468788e-07  0.
-1.7635988165137078e-09 5.605474357441568e-07  0.
-4.201524913804318e-09 5.57119533463297e-07  0.
-8.839814270128675e-09 5.495064765713469e-07  0.
-1.6591226858321255e-08 5.344885264459831e-07  0.
-2.8053905789673478e-08 5.079162564662611e-07  0.
-4.315133552090879e-08 4.654599234247247e-07  0.
-6.17760791546242e-08 4.0475345033285673e-07  0.
-9.251677803920015e-08 3.3760511602705236e-07  0.
-2.1705291609293536e-07 3.7804683182677136e-07  0.
0.0 1.696857926812121e-06  0.
-6.5583455581946836e-18 1.6968579268101936e-06  0.
-9.00891036450423e-17 1.6968579267803048e-06  0.
-1.0911297251703873e-15 1.6968579263953753e-06  0.
-1.1575719005243461e-14 1.6968579220385115e-06  0.
-1.0655032312383823e-13 1.6968578790804376e-06  0.
-8.423699503131819e-13 1.6968575137848107e-06  0.
-5.660766255313877e-12 1.6968548631854905e-06  0.
-3.2023011585342615e-11 1.6968386237494165e-06  0.
-1.5142773276893334e-10 1.6967553645793325e-06  0.
-5.976690683104833e-10 1.696399774060574e-06  0.
-1.9822426424668223e-09 1.695130825524123e-06  0.
-5.601859358039482e-09 1.6913024625990186e-06  0.
-1.3692421196447593e-08 1.6813777276024167e-06  0.
-2.931237655797502e-08 1.6589777568374163e-06  0.
-5.564296342208424e-08 1.614386031842478e-06  0.
-9.462158706122294e-08 1.5352979064096609e-06  0.
-1.4603582389773924e-07 1.4094816919990645e-06  0.
-2.107769034464101e-07 1.233178660432366e-06  0.
-3.228128017203225e-07 1.0560530845379201e-06  0.
-7.046287379604511e-07 1.2167336859123706e-06  0.
0.0 3.917483711369668e-06  0.
-1.143671503323811e-17 3.91748371136668e-06  0.
-1.6191542046826592e-16 3.917483711319451e-06  0.
-2.0266824643120754e-15 3.9174837106916665e-06  0.
-2.2295860281439315e-14 3.917483703332307e-06  0.
-2.1362241600961718e-13 3.9174836279002785e-06  0.
-1.7649447536689332e-12 3.9174829584605e-06  0.
-1.2441147268597236e-11 3.917477869199546e-06  0.
-7.402809650933747e-11 3.917445097710235e-06  0.
-3.6835544721218116e-10 3.917268275998441e-06  0.
-1.5242104294838882e-09 3.91647555889559e-06  0.
-5.252875775413513e-09 3.913530460009766e-06  0.
-1.5238473001102694e-08 3.904402476120475e-06  0.
-3.781845208864288e-08 3.88044389461058e-06  0.
-8.147368823807417e-08 3.826306021194844e-06  0.
-1.544505709812682e-07 3.719521269022127e-06  0.
-2.609402130787726e-07 3.533428634634112e-06  0.
-3.9936588326307557e-07 3.2458500614961056e-06  0.
-5.772743420165417e-07 2.86657069580606e-06  0.
-8.990570643474646e-07 2.564180746232216e-06  0.
-1.7809928113996565e-06 3.063064150196044e-06  0.
0.0 6.827211290614104e-06  0.
-1.851363107389253e-17 6.8272112906099464e-06  0.
-2.6884045767204126e-16 6.827211290542255e-06  0.
-3.459697541469096e-15 6.827211289617698e-06  0.
-3.9240609448974804e-14 6.827211278453218e-06  0.
-3.88841167275414e-13 6.827211160215535e-06  0.
-3.3334376949329665e-12 6.827210072501072e-06  0.
-2.445855795960033e-11 6.827201473163591e-06  0.
-1.5186303246620574e-10 6.8271437287666305e-06  0.
-7.891017582985996e-10 6.826818386788581e-06  0.
-3.4006929066243104e-09 6.825297881569568e-06  0.
-1.2110645375568709e-08 6.819450027944267e-06  0.
-3.58342289379702e-08 6.800946971625402e-06  0.
-8.942896118913268e-08 6.752253022339563e-06  0.
-1.9160441179887948e-07 6.643720614949277e-06  0.
-3.575541975005739e-07 6.435857394938299e-06  0.
-5.912432139986402e-07 6.089300420991279e-06  0.
-8.847113023129667e-07 5.589338244103839e-06  0.
-1.2693218104966597e-06 5.021357646814186e-06  0.
-1.980465404309452e-06 4.826326641982378e-06  0.
-3.454258394860801e-06 5.987763248235422e-06  0.
0.0 9.341507171091685e-06  0.
-2.790717353665016e-17 9.341507171086369e-06  0.
-4.141857843838978e-16 9.34150717099798e-06  0.
-5.4546013798053585e-15 9.341507169763764e-06  0.
-6.345956456455466e-14 9.341507154487713e-06  0.
-6.466549127382728e-13 9.34150698825935e-06  0.
-5.71603364678033e-12 9.341505412854034e-06  0.
-4.335849526247099e-11 9.341492547380648e-06  0.
-2.7891513884783684e-10 9.341403096586528e-06  0.
-1.5028075076775332e-09 9.340880568196388e-06  0.
-6.703195020681184e-09 9.33835115313775e-06  0.
-2.4544821221365974e-08 9.328331283599038e-06  0.
-7.372305990958462e-08 9.296095548398478e-06  0.
-1.836346860729786e-07 9.211617334880015e-06  0.
-3.869983778353265e-07 9.028314748798994e-06  0.
-7.029749911316399e-07 8.692538793379679e-06  0.
-1.121460334874452e-06 8.171374126976061e-06  0.
-1.6258089582674319e-06 7.505843318093849e-06  0.
-2.2965840041069415e-06 6.979065394521129e-06  0.
-3.4939555444242615e-06 7.4133085550206825e-06  0.
-5.239900760290469e-06 9.328840514952382e-06  0.
0.0 1.1419669147982694e-05  0.
-3.9384706708570855e-17 1.1419669147976487e-05  0.
-5.948003451350886e-16 1.141966914787135e-05  0.
-7.983201132494137e-15 1.1419669146376315e-05  0.
-9.483406058703853e-14 1.1419669127497703e-05  0.
-9.887362570915385e-13 1.1419668917491714e-05  0.
-8.961552693104413e-12 1.141966687853125e-05  0.
-6.985158202694726e-11 1.1419649782929105e-05  0.
-4.62572246688376e-10 1.1419527507173607e-05  0.
-2.568025000351188e-09 1.1418791765832612e-05  0.
-1.1787729819947145e-08 1.1415124993238406e-05  0.
-4.418487145528774e-08 1.1400232624499647e-05  0.
-1.342939091659223e-07 1.1351645647487104e-05  0.
-3.324080950482276e-07 1.1225199619894035e-05  0.
-6.83322545674919e-07 1.096046661898796e-05  0.
-1.198182440665426e-06 1.0504424050384265e-05  0.
-1.8361062347440312e-06 9.85758093075259e-06  0.
-2.5818555955908404e-06 9.178577172603393e-06  0.
-3.6026775366303023e-06 9.025693006591422e-06  0.
-5.172991112046907e-06 1.032636875076757e-05  0.
-6.771762718351652e-06 1.2372300196081514e-05  0.
0.0 1.3914030232862252e-05  0.
-5.210213339235955e-17 1.3914030232855655e-05  0.
-7.97744408954897e-16 1.3914030232743496e-05  0.
-1.087063694418918e-14 1.3914030231124962e-05  0.
-1.313010389266493e-13 1.391403021035451e-05  0.
-1.3941471135577576e-12 1.3914029975183364e-05  0.
-1.289076937259728e-11 1.3914027647256721e-05  0.
-1.0267955716801934e-10 1.3914007713182787e-05  0.
-6.959069156826731e-10 1.3913861862599765e-05  0.
-3.957248816164784e-09 1.3912963141739999e-05  0.
-1.859183840036964e-08 1.3908376854259546e-05  0.
-7.104704198677707e-08 1.3889359555386916e-05  0.
-2.180351664015904e-07 1.3826559411595254e-05  0.
-5.356095919032837e-07 1.3664198091297409e-05  0.
-1.0697661672473752e-06 1.3337214080310753e-05  0.
-1.8019640563176044e-06 1.2815631780758899e-05  0.
-2.671007806530241e-06 1.2158077913832964e-05  0.
-3.6886088626208306e-06 1.1669755787813786e-05  0.
-5.12536642659268e-06 1.2055255496010293e-05  0.
-6.832241950947758e-06 1.3612115047876055e-05  0.
-8.272252620882434e-06 1.4795268696325875e-05  0.
0.0 1.634642748208332e-05  0.
-6.467351598253367e-17 1.6346427482077235e-05  0.
-1.0004206886015189e-15 1.63464274819724e-05  0.
-1.3791349880435157e-14 1.6346427480441815e-05  0.
-1.6870371344094662e-13 1.63464274605566e-05  0.
-1.8163341037131766e-12 1.634642723234551e-05  0.
-1.705128792142964e-11 1.6346424939696833e-05  0.
-1.3807645144285069e-10 1.63464049889974e-05  0.
-9.524650057213723e-10 1.6346256464562632e-05  0.
-5.516408803571613e-09 1.634532438254507e-05  0.
-2.6385534142295764e-08 1.6340479830373252e-05  0.
-1.0236482840339073e-07 1.632005850588895e-05  0.
-3.1658969734203277e-07 1.6251916957873442e-05  0.
-7.723965924664043e-07 1.607655008654211e-05  0.
-1.5004008413323891e-06 1.5735767966030328e-05  0.
-2.428152497856437e-06 1.5238025356700369e-05  0.
-3.5194944221124786e-06 1.4709461409490701e-05  0.
-4.8445607363931605e-06 1.4529760816502939e-05  0.
-6.563904794374681e-06 1.5285078800593062e-05  0.
-8.23102364938518e-06 1.6302979978553886e-05  0.
-9.493896605456743e-06 1.6592995634220346e-05  0.
0.0 1.8642012911579235e-05  0.
-7.539952714757149e-17 1.8642012911574515e-05  0.
-1.1750853916978225e-15 1.864201291149254e-05  0.
-1.63319315659067e-14 1.864201291028689e-05  0.
-2.015722974889257e-13 1.864201289448882e-05  0.
-2.1915153981444337e-12 1.864201271148254e-05  0.
-2.0794112311476972e-11 1.8642010854062673e-05  0.
-1.7034725549427822e-10 1.864199450973189e-05  0.
-1.1897533113767044e-09 1.8641871359375316e-05  0.
-6.980489343107985e-09 1.864108863516132e-05  0.
-3.381605993950517e-08 1.8636967678916532e-05  0.
-1.3262964589266806e-07 1.8619390591781814e-05  0.
-4.1259380065660505e-07 1.8560275854672335e-05  0.
-1.0017002528768298e-06 1.8408469023956365e-05  0.
-1.9030829054177975e-06 1.8121513862395477e-05  0.
-2.974894955585078e-06 1.7739268675858174e-05  0.
-4.241483225548156e-06 1.742686840282998e-05  0.
-5.830487619516188e-06 1.748876598024015e-05  0.
-7.463884873601811e-06 1.813678474622802e-05  0.
-9.00903188110952e-06 1.858580019525298e-05  0.
-1.0112224143692887e-05 1.887425189141461e-05  0.
0.0 2.1087739467897173e-05  0.
-8.265224877726439e-17 2.1087739467894547e-05  0.
-1.2937831933941031e-15 2.108773946784959e-05  0.
-1.8068923785399744e-14 2.1087739467184696e-05  0.
-2.241959652666775e-13 2.1087739458426938e-05  0.
-2.4516606464873743e-12 2.1087739356393674e-05  0.
-2.341030021519853e-11 2.10877383143249e-05  0.
-1.9310278921147142e-10 2.108772908206984e-05  0.
-1.3586677658296443e-09 2.108765900884908e-05  0.
-8.033184951930626e-09 2.1087210165731575e-05  0.
-3.921310664575248e-08 2.108482838167466e-05  0.
-1.548160409575632e-07 2.1074594652300252e-05  0.
-4.834034343250599e-07 2.103999207190324e-05  0.
-1.1704986025396092e-06 2.095117626579406e-05  0.
-2.1933990886790275e-06 2.0786113294145462e-05  0.
-3.347849191569296e-06 2.058143362443391e-05  0.
-4.698090696108023e-06 2.046383823148225e-05  0.
-6.410703028465316e-06 2.0580423288814952e-05  0.
-7.91141725446565e-06 2.0817754312809105e-05  0.
-9.221150369185525e-06 2.1024512696674422e-05  0.
-1.0499950452971832e-05 2.1478074506818602e-05  0.
0.0 2.344999999999997e-05  0.
-8.521569519061115e-17 2.344999999999997e-05  0.
-1.3358611784711025e-15 2.344999999999997e-05  0.
-1.8686473417839797e-14 2.344999999999997e-05  0.
-2.322667394410092e-13 2.344999999999997e-05  0.
-2.5448125627946772e-12 2.344999999999997e-05  0.
-2.435091785730114e-11 2.344999999999997e-05  0.
-2.0132066538459326e-10 2.344999999999997e-05  0.
-1.4199607995731334e-09 2.344999999999997e-05  0.
-8.417109158755354e-09 2.344999999999997e-05  0.
-4.119153837603006e-08 2.344999999999997e-05  0.
-1.629876120670369e-07 2.344999999999997e-05  0.
-5.095729261550841e-07 2.344999999999997e-05  0.
-1.2328665228875143e-06 2.344999999999997e-05  0.
-2.299697022790532e-06 2.344999999999997e-05  0.
-3.480053848319191e-06 2.344999999999997e-05  0.
-4.844664404424873e-06 2.344999999999997e-05  0.
-6.577977101207919e-06 2.344999999999997e-05  0.
-8.090883303265555e-06 2.344999999999997e-05  0.
-9.241205734252029e-06 2.344999999999997e-05  0.
-1.0696358365865324e-05 2.344999999999997e-05  0.
</DataArray>
<DataArray type="Float64" Name="sigma_xx" NumberOfComponents="1" format="ascii" >
0.028738300628106107 
0.028738300628106107 
0.02873814519688266 
0.02873798976565921 
0.028737534574219115 
0.028736346635582766 
0.028733204704423077 
0.02872505566742233 
0.02870476079053218 
0.028658242445800387 
0.028561697451578983 
0.028375179983441957 
0.02803784981963985 
0.027465851815122722 
0.0265554467304696 
0.025189839103489924 
0.023254298486818918 
0.020655754884302262 
0.017298507071217266 
0.011882517192418613 
0.008348965963023144 
0.22289163847943874 
0.22289163847943874 
0.22289156076382702 
0.22289111112350204 
0.2228894679934256 
0.22288422774074937 
0.22286724687958773 
0.22281850808880668 
0.22269293631360645 
0.22239667885060035 
0.22175569158733302 
0.2204749549594708 
0.21809477002143746 
0.21396514560123586 
0.20725542393407176 
0.19701202891297948 
0.18227939158066414 
0.1622627532338327 
0.13620434780037266 
0.09547584389757442 
0.06939246954829056 
2.7148997716608383 
2.7148997716608383 
2.71489940528724 
2.7148970349610826 
2.7148862491443984 
2.714844582474284 
2.714700519934609 
2.7142602443408483 
2.713059293890651 
2.7100961974557682 
2.7034282035209847 
2.6896385729724406 
2.6632698379991373 
2.6164081845525535 
2.5386882374078814 
2.4179680258029626 
2.2418320810846373 
1.9996744760053522 
1.6810866643179874 
1.178728731288103 
0.8562308861925767 
28.96617616876539 
28.966176024436397 
28.966173964972686 
28.966161641497113 
28.966098292171328 
28.965821208259957 
28.964778830964367 
28.961364417767744 
28.951473013405494 
28.925811934588086 
28.865549961398774 
28.7363622120118 
28.48170300717711 
28.01742405855733 
27.230688448565125 
25.986564949898032 
24.144184751495594 
21.579981790420526 
18.16748483318697 
12.718383418652829 
9.205656936739356 
269.42806247154385 
269.4280616721833 
269.42805381735536 
269.4279987058844 
269.42767893944887 
269.42612223468376 
269.4197191954738 
269.3970669709332 
269.32707964388834 
269.13533959227453 
268.66412369819227 
267.614529525506 
265.47840846768963 
261.47837567935807 
254.5478049731375 
243.38394838674384 
226.59937675972844 
202.94451680558095 
171.0792137787908 
119.50185499765003 
86.10464812264235 
2160.7508503107547 
2160.7508474685837 
2160.750819579781 
2160.750605578742 
2160.7492299791083 
2160.741834739132 
2160.7084583874494 
2160.580571192171 
2160.1573033436234 
2158.9294702695206 
2155.763318983927 
2148.425133047249 
2132.98810229634 
2103.2830077982726 
2050.6446970769416 
1964.281500047015 
1832.4750380493965 
1644.4028975298725 
1387.8168521247453 
966.4233318190659 
692.2799090258721 
14746.000690013525 
14746.000681703503 
14746.000593340854 
14745.99986459046 
14745.994765269494 
14745.964772855385 
14745.816875078028 
14745.202202459668 
14743.021361562907 
14736.30934819003 
14718.136103300523 
14674.277805978849 
14578.931097544708 
14390.468106001414 
14049.214607161903 
13479.494958584797 
12597.81114661129 
11325.141086721 
9566.203517705206 
6632.655584828948 
4714.767998664768 
84291.61808334306 
84291.6180612829 
84291.61781312585 
84291.61561943064 
84291.59909385529 
84291.49389589939 
84290.93144439734 
84288.40629263742 
84278.81217946683 
84247.52616318085 
84158.64913326186 
83935.67408311318 
83435.60592403151 
82422.71619399996 
80553.341076367 
77386.38101119908 
72429.52973343928 
65206.85655530266 
55097.24097515487 
37965.48507811191 
26709.273078773233 
395796.2540401037 
395796.2539867575 
395796.25335728884 
395796.2474550102 
395796.20005022455 
395795.87674358196 
395794.0194937668 
395785.07040436956 
395748.8103616679 
395623.9736681492 
395253.2647468281 
394290.3002054853 
392072.5893292092 
387492.4989024586 
378923.45085774036 
364273.51194096555 
341206.94059509557 
307427.32093580184 
259606.84730722543 
177284.24059950112 
122937.58344596444 
1489175.9134094012 
1489175.9132908739 
1489175.9118368148 
1489175.8975057118 
1489175.7758700158 
1489174.895287287 
1489169.5087005603 
1489141.8636140707 
1489023.0738404281 
1488593.3477820405 
1487267.5954642305 
1483725.1031490911 
1475413.7341869916 
1458062.1076389072 
1425467.8167132712 
1369792.7078720662 
1282484.8791644494 
1155058.3131021112 
973199.7242680031 
655711.0516604817 
445290.44830635114 
4344514.060903025 
4344514.060661347 
4344514.057588571 
4344514.025967576 
4344513.744553899 
4344511.599881827 
4344497.7469177935 
4344422.60365784 
4344082.334578155 
4342795.628524353 
4338696.833194371 
4327531.036156766 
4301116.240192588 
4246094.072659789 
4143825.9398490125 
3972194.5829740046 
3708739.09061485 
3331390.7254614215 
2792010.287297702 
1841751.4626708976 
1210932.9867547306 
9411230.499116637 
9411230.498662384 
9411230.492697623 
9411230.428999033 
9411229.83866094 
9411225.13762145 
9411193.320477981 
9411012.264318567 
9410153.84484629 
9406778.732602732 
9395740.11863966 
9365345.068423653 
9293721.579696437 
9147184.81837349 
8883101.351693545 
8458228.476805817 
7837872.257051539 
6989120.882583545 
5788802.543890351 
3681869.8892186014 
2289131.2007931746 
14402502.960207105 
14402502.95941601 
14402502.94874584 
14402502.831149833 
14402501.70312012 
14402492.37891127 
14402426.713957926 
14402037.422239302 
14400117.067368196 
14392307.025858048 
14366206.584103404 
14294089.03857715 
14126861.027643822 
13796283.400958858 
13232273.20904304 
12389500.522956196 
11267557.59300832 
9863875.967096927 
7940936.299877601 
4694701.428668011 
2595316.6977195772 
15228672.642428081 
15228672.641147934 
15228672.623487812 
15228672.42359548 
15228670.449557597 
15228653.61051267 
15228530.975022502 
15227778.227950424 
15223936.921042234 
15207852.6010211 
15153130.249109788 
15002155.458642932 
14661212.0252188 
14020885.2381563 
13010447.845606979 
11659628.71230781 
10101958.949698413 
8420324.127692426 
6243930.262794528 
3049479.3919549873 
1158551.62045875 
12888675.235068653 
12888675.233136782 
12888675.205971286 
12888674.891535247 
12888671.709746752 
12888643.843529025 
12888435.109187331 
12887115.875260923 
12880187.431656606 
12850442.773696566 
12747698.933240388 
12465397.161215546 
11849036.00856626 
10767335.701616634 
9226368.1890694 
7455832.265425654 
5781300.500587765 
4263776.861059244 
2366252.1862801965 
453209.4737924847 
-303717.6231444096 
12832578.23692991 
12832578.234203152 
12832578.19524794 
12832577.735964991 
12832572.99435085 
12832530.557069138 
12832205.229431467 
12830098.875369407 
12818769.089472529 
12769096.470138105 
12595307.341591764 
12120241.752363427 
11121320.857265567 
9508647.33804122 
7493544.306058308 
5578480.911114281 
4169048.468247419 
2907609.243778184 
1183166.497065397 
11505.006032619392 
-142871.94624334248 
13828910.837019809 
13828910.833413664 
13828910.781237058 
13828910.156945014 
13828903.607726313 
13828843.969024858 
13828378.237579424 
13825304.006836848 
13808447.24771018 
13733271.591475587 
13467482.118651072 
12744633.135414075 
11281052.881910704 
9133593.899865717 
6863648.783392794 
5123711.728589234 
4058097.0589340217 
2701741.489159191 
844916.1524487219 
-306851.978217226 
-564446.9111864693 
13269673.052500615 
13269673.048025139 
13269672.982637767 
13269672.191424057 
13269663.78898265 
13269586.257002769 
13268972.182397941 
13264858.434427556 
13241966.41954999 
13138518.07644397 
12769738.685026119 
11771107.11854988 
9816431.223889425 
7218370.973130284 
4991485.513273664 
3608918.661788169 
2509084.2073470787 
874412.7461838061 
-864898.2692171149 
-1003201.2720087711 
-450074.05034194374 
13307177.173895376 
13307177.168677606 
13307177.091917057 
13307176.155676857 
13307166.127053656 
13307072.72452518 
13306325.551789716 
13301267.716736954 
13272826.538373945 
13143085.67274582 
12677801.407650355 
11421752.254285438 
9027396.080422098 
6114494.955997255 
4157812.9550597225 
3140448.6624127394 
1554019.2161428684 
-62289.36048942618 
-959898.8314990348 
-98889.16405032785 
1154164.1253200485 
13494737.035724886 
13494737.030005522 
13494736.945521016 
13494735.91019319 
13494724.763214817 
13494620.36882008 
13493780.310879035 
13488058.329515854 
13455681.507950684 
13307151.733531453 
12772547.489388693 
11332015.332230475 
8631477.547100501 
5544110.60947012 