<?xml version="1.0"?>
<VTKFile type="UnstructuredGrid" version="0.1" byte_order="LittleEndian" compressor="vtkZLibDataCompressor">
<UnstructuredGrid>
<Piece NumberOfPoints="441" NumberOfCells="400">
<PointData>
<DataArray type="Float64" Name="displacement" NumberOfComponents="3" format="ascii" >
0.0 5.82384923647129e-51  0.
8.645093196478852e-51 2.821453139707089e-51  0.
1.4409192705259065e-50 2.943097026979556e-51  0.
1.4936115660738302e-50 -2.4155970710454653e-51  0.
3.055898382399432e-51 -9.460109909209456e-51  0.
-6.127089237200109e-50 -5.485241725350263e-50  0.
-3.105723820857043e-49 -1.9440218648732537e-49  0.
-1.1862235026054831e-48 -6.811360256473467e-49  0.
-3.752546330852159e-48 -1.8849324962512682e-48  0.
-1.0412570091360762e-47 -4.774636453124834e-48  0.
-2.548566988854808e-47 -1.0297748933691531e-47  0.
-5.561521612347233e-47 -1.9831039749495246e-47  0.
-1.082928110185084e-46 -3.2845888571359676e-47  0.
-1.8842099615575412e-46 -4.728309871711386e-47  0.
-2.9230210108515066e-46 -5.659842912131675e-47  0.
-4.0276870456447375e-46 -5.387776244363589e-47  0.
-4.8863607574990334e-46 -3.195400901900605e-47  0.
-5.124972480046307e-46 7.788741199425066e-48  0.
-4.4807783665008195e-46 5.909233982697951e-47  0.
-2.754777109364767e-46 9.278861028504274e-47  0.
-1.5917280088937996e-46 2.012228881102623e-46  0.
0.0 1.899802423647439e-48  0.
6.643318978895212e-48 4.752026973301095e-48  0.
1.1425114300290199e-47 3.587479968735276e-50  0.
1.2131761620322205e-47 6.708930401807301e-49  0.
7.802430558169579e-48 -5.0117625115889835e-48  0.
-1.115597784461704e-47 -1.4011182625188485e-47  0.
-1.0988493943950924e-46 -8.496692545544923e-47  0.
-4.797782256986786e-46 -2.8580217082972437e-46  0.
-1.7654232036189844e-45 -1.0024081477633976e-45  0.
-5.453777231713374e-45 -2.6926099543811804e-45  0.
-1.469908779625138e-44 -6.567748379787266e-45  0.
-3.4744378840793277e-44 -1.3507796177787113e-44  0.
-7.233769438172647e-44 -2.413773752415405e-44  0.
-1.3302763559208168e-43 -3.6633616125677424e-44  0.
-2.1586756356931614e-43 -4.63071070445144e-44  0.
-3.0827567284691057e-43 -4.62200814670673e-44  0.
-3.8452361626019036e-43 -3.007495879111068e-44  0.
-4.116624419626863e-43 2.6504847248683243e-45  0.
-3.651149446671775e-43 4.603659814146117e-44  0.
-2.2624212730130413e-43 7.574817831862905e-44  0.
-1.3100318725960261e-43 1.6618437154536224e-43  0.
0.0 8.679323724593698e-45  0.
7.610372958275866e-45 -1.0555980941816635e-45  0.
1.2113466561924989e-44 5.568182589505333e-45  0.
1.4098477928292882e-44 -3.58180901241138e-45  0.
9.622039534084435e-45 -9.031047667013828e-46  0.
-3.3724285141441706e-45 -1.2129568754797436e-44  0.
-5.24865465140988e-44 -3.7182020713717166e-44  0.
-3.4487631018453765e-43 -2.559489153586551e-43  0.
-1.3865995099779637e-42 -7.883473255095178e-43  0.
-4.985662424609353e-42 -2.818100915687098e-42  0.
-1.5263093863669423e-41 -7.477783637908638e-42  0.
-3.9970266818380357e-41 -1.7270012096108655e-41  0.
-9.096383825384929e-41 -3.3796300462088353e-41  0.
-1.7840484636036056e-40 -5.377400758678321e-41  0.
-3.04869547839975e-40 -7.28391238676535e-41  0.
-4.51567012061086e-40 -7.407617423680478e-41  0.
-5.783879521499988e-40 -5.28111279065402e-41  0.
-6.30395768079708e-40 3.0729083284116345e-43  0.
-5.6536382922536785e-40 6.810069020311404e-41  0.
-3.527102176422999e-40 1.176751819106122e-40  0.
-2.0444535125808114e-40 2.5973741652153e-40  0.
0.0 -9.450737814006931e-42  0.
2.3451526246648903e-42 1.1816513356257492e-41  0.
6.107727230336037e-42 -8.057238374882885e-42  0.
5.254414462995089e-42 7.21964736978818e-42  0.
6.516503746578577e-42 -5.973367297460805e-42  0.
-2.510761072822616e-42 -3.077435207106839e-42  0.
-3.3603294793969086e-41 -2.81138730143328e-41  0.
-1.5746206851991132e-40 -9.633256989665316e-41  0.
-1.022577651241611e-39 -7.70868643429084e-40  0.
-3.851980314494917e-39 -2.0656859637981038e-39  0.
-1.3508307522386746e-38 -7.611390279284113e-39  0.
-4.0954167436913004e-38 -1.9884694759413102e-38  0.
-1.0253393702465483e-37 -4.178825959919883e-38  0.
-2.2052101314377824e-37 -7.641089789590555e-38  0.
-3.9860462074434425e-37 -1.0183533358114568e-37  0.
-6.175496808253756e-37 -1.1755228521801855e-37  0.
-8.129986752426444e-37 -7.791425898563036e-38  0.
-9.002250080291008e-37 -1.0180894375517311e-38  0.
-8.151760488064121e-37 1.0022013953608712e-37  0.
-5.092646785739875e-37 1.6709242078352305e-37  0.
-2.9862366279278727e-37 3.776585053474032e-37  0.
0.0 1.725148411477207e-38  0.
-8.076627968133734e-39 -2.527665776853085e-38  0.
-1.5354813099569594e-38 1.7901758723748222e-38  0.
-8.461544820811883e-39 -1.0915609293609739e-38  0.
-7.799031018251594e-39 1.1529673400033496e-38  0.
-1.055943918121793e-39 -4.7880983863390506e-39  0.
-1.8432468097515455e-38 -1.2653595437008387e-38  0.
-1.0016944945426018e-37 -6.933470469054586e-38  0.
-3.951935267201016e-37 -2.2738656633675004e-37  0.
-2.848554039989696e-36 -2.231464200049868e-36  0.
-1.0028382834703379e-35 -4.969309164177784e-36  0.
-3.354572557202766e-35 -1.8599762062711554e-35  0.
-9.822372656581981e-35 -4.618720425095372e-35  0.
-2.284365882583404e-34 -8.437742552083876e-35  0.
-4.5257405262583255e-34 -1.397613568940642e-34  0.
-7.371674906012994e-34 -1.4586595589782268e-34  0.
-1.0126038438770335e-33 -1.2930337800467003e-34  0.
-1.1496630517690054e-33 -9.28107274676399e-36  0.
-1.0490182989548826e-33 1.1725273339686523e-34  0.
-6.580997042782937e-34 2.233882196106162e-34  0.
-3.8010831664592876e-34 4.8049654758460496e-34  0.
0.0 -5.416933483793226e-35  0.
-2.8819414824770625e-35 2.558791478461481e-35  0.
-3.1662546750545655e-35 -2.89860791822815e-35  0.
-3.3668504964931475e-35 2.743671203353982e-35  0.
-1.07246761788519e-35 -4.691657362639271e-36  0.
-6.308729030448711e-36 9.169214457358138e-36  0.
-1.7651672928830728e-36 -4.664524252995474e-36  0.
-4.562588570941468e-35 -3.9363340581347963e-35  0.
-2.36692517651105e-34 -1.522382459383823e-34  0.
-8.349718649553446e-34 -4.513446697320772e-34  0.
-6.777116009905109e-33 -5.5096177769081044e-33  0.
-2.2120472741927442e-32 -9.859618797228634e-33  0.
-6.833035804375124e-32 -3.649761609001188e-32  0.
-1.8734990283880057e-31 -8.297310858772723e-32  0.
-3.9949586763805365e-31 -1.2869039056998296e-31  0.
-7.232147952758176e-31 -1.9720955934528188e-31  0.
-1.0699309269884303e-30 -1.4939110522267353e-31  0.
-1.2911746638542201e-30 -7.255863806132159e-32  0.
-1.2263612767071486e-30 1.493065153320306e-31  0.
-7.540705507429209e-31 2.551864114187563e-31  0.
-4.3883497727635315e-31 5.576858140870834e-31  0.
0.0 1.5239370853705453e-32  0.
-4.0557744961367213e-32 -5.460437441403832e-32  0.
-5.71826798081147e-32 3.5555724885216705e-32  0.
-3.031854668185754e-32 -7.088908747988274e-33  0.
-1.6971876348473874e-32 1.9985611891742396e-32  0.
1.5166326144582892e-33 -1.4325033799626859e-33  0.
2.3263930543249645e-35 -5.077585568254197e-35  0.
-6.4997539773113e-33 -6.565401141021029e-33  0.
-1.1206595957717188e-31 -9.91554251972258e-32  0.
-4.780771631320723e-31 -2.689143668945265e-31  0.
-1.5190866878306607e-30 -7.817613101010507e-31  0.
-1.2245925893562172e-29 -9.919032509564692e-30  0.
-3.619884866401578e-29 -1.4255874397321112e-29  0.
-1.0287163806094082e-28 -5.275139806652005e-29  0.
-2.6062030961234293e-28 -1.040978962954862e-28  0.
-5.258564499264261e-28 -1.652995280294673e-28  0.
-9.876455355825404e-28 -3.070111667563634e-28  0.
-1.4222619316072537e-27 -1.017372148230608e-28  0.
-1.4858690211430523e-27 5.32950652897237e-29  0.
-9.171220891140254e-28 3.6528918416354613e-28  0.
-5.098301409895996e-28 6.75288546936082e-28  0.
0.0 -4.758589670119411e-29  0.
-8.25226207866024e-29 -2.5834525332679697e-29  0.
-6.996343725330614e-29 2.3968367615600762e-29  0.
-2.4989280997889447e-29 2.6674188728855384e-29  0.
1.069628788632261e-30 -9.904563183603947e-31  0.
2.2084578321176074e-32 -2.4149910982779266e-32  0.
3.7664591585622987e-34 -5.33234013504208e-34  0.
-1.7585016156102877e-32 -3.051045382623502e-32  0.
-1.0819874197064686e-29 -1.0927425749718213e-29  0.
-2.922356787415444e-28 -2.7831544137910016e-28  0.
-9.256510193019657e-28 -3.5491821918934263e-28  0.
-2.6167078737965173e-27 -1.3465188513826996e-27  0.
-1.5089323210607275e-26 -1.1584193680461241e-26  0.
-4.0655186470574023e-26 -1.3945768945625102e-26  0.
-1.401947561444278e-25 -7.899781557377047e-26  0.
-3.1916440204278845e-25 -9.254341909064251e-26  0.
-6.658984420033474e-25 -2.4827084068961465e-25  0.
-1.6486899512412355e-24 -4.745349840395829e-25  0.
-1.7937684250372117e-24 3.260252556530659e-25  0.
-1.0767424057863681e-24 -5.0811145742502843e-26  0.
-1.3796758984380556e-24 1.2933072452281804e-24  0.
0.0 7.179812148431133e-21  0.
-2.1651160460330267e-25 7.18016875647355e-21  0.
-1.9293666870501244e-26 7.18008608069796e-21  0.
4.855100388071779e-28 7.180063799428695e-21  0.
1.0360539709192636e-29 7.180064187573661e-21  0.
1.7829453577023136e-31 7.18006419937275e-21  0.
1.9448309166696183e-33 7.180064199589743e-21  0.
-6.531116259761151e-32 7.180064199479e-21  0.
-2.6625324126307476e-29 7.180064150858693e-21  0.
-1.207158254321926e-26 7.180051350961933e-21  0.
-6.3233310768129785e-25 7.179549240964506e-21  0.
-1.4999955849835192e-24 7.179901687855161e-21  0.
-3.67514834002706e-24 7.178111941112479e-21  0.
-1.4049168179473478e-23 7.17342425308126e-21  0.
-3.0508893755120406e-23 7.172069494135938e-21  0.
-1.509578170482716e-22 6.922120446384158e-21  0.
-3.1090631676741756e-22 6.729250918656973e-21  0.
-5.531786152408475e-22 5.851658587109923e-21  0.
-6.051725831480586e-22 4.218268677898686e-21  0.
-6.05313489066448e-22 3.5142018702087885e-21  0.
-2.1262478817639537e-21 3.705653467528965e-21  0.
0.0 7.943990231408844e-19  0.
-9.148724025732634e-24 7.940830685659268e-19  0.
1.1360899519354491e-25 7.940762043723416e-19  0.
3.1113969260838634e-27 7.940762854178195e-19  0.
5.151692294338268e-29 7.940762892446619e-19  0.
5.323850518848217e-31 7.940762893161955e-19  0.
-3.659819768915275e-33 7.940762893171256e-19  0.
-7.499150857775943e-32 7.940762893168767e-19  0.
-1.4049143989333172e-28 7.940762891019356e-19  0.
-3.3691052267075193e-26 7.940762335548585e-19  0.
-8.084368811806612e-24 7.940674394134769e-19  0.
-2.46752816538854e-22 7.934977944593291e-19  0.
-5.575640996683905e-22 7.926850995757451e-19  0.
-2.2023866434216628e-21 7.89422166035262e-19  0.
-4.6515495023334924e-21 7.828523599426631e-19  0.
-1.0827150615448875e-20 7.689914340169901e-19  0.
-2.1351221833201133e-20 7.360326197351158e-19  0.
-3.600063682786131e-20 6.79806958165735e-19  0.
-5.103143999012564e-20 5.934375566301853e-19  0.
-7.301593784714745e-20 4.83464808967068e-19  0.
-2.5305567683470893e-19 4.906268077092163e-19  0.
0.0 5.171785807437105e-17  0.
2.4863270059455045e-23 5.171665392693137e-17  0.
5.419883183425299e-25 5.1716643359356393e-17  0.
8.570725360815111e-27 5.1716644023892845e-17  0.
8.846769135992681e-29 5.171664403900522e-17  0.
-5.731901310075965e-31 5.1716644039216696e-17  0.
3.875064975466467e-32 5.171664403921747e-17  0.
-2.2010276897071036e-30 5.1716644039214995e-17  0.
-3.660256478715809e-28 5.171664403850503e-17  0.
-4.151830824682768e-25 5.1716643565106417e-17  0.
-2.892856437351124e-23 5.1716593115284946e-17  0.
-3.898215667047754e-21 5.171314082284584e-17  0.
-2.3228945868467364e-20 5.168663399781642e-17  0.
-8.965166653711756e-20 5.1578231102504054e-17  0.
-2.5313953631984426e-19 5.1249872687239716e-17  0.
-6.162309001263773e-19 5.04133854006451e-17  0.
-1.2373653771582443e-18 4.8626393982480695e-17  0.
-2.185635792790277e-18 4.5315071569844155e-17  0.
-3.382175130540242e-18 3.993008659500347e-17  0.
-4.9156610679845595e-18 3.2344486971742486e-17  0.
-1.7160036502484526e-17 3.313254118459852e-17  0.
0.0 2.7891401548013678e-15  0.
4.879116558517088e-23 2.7891428179252135e-15  0.
6.0600890897364005e-25 2.7891428982442966e-15  0.
4.541758821471907e-27 2.789142899986507e-15  0.
-7.778802151604737e-29 2.7891429000148192e-15  0.
9.090230633966445e-30 2.7891429000150164e-15  0.
2.702667077862687e-32 2.789142900015026e-15  0.
-5.822021196497771e-30 2.7891429000150156e-15  0.
-4.228361792821148e-27 2.7891429000097622e-15  0.
-6.747124026568021e-25 2.789142898178153e-15  0.
-6.045035333483231e-22 2.7891419707727222e-15  0.
-3.222125944942386e-20 2.7891167627049934e-15  0.
-5.948532726994372e-19 2.788543703666077e-15  0.
-2.8095590358731034e-18 2.785365260220839e-15  0.
-1.0229368854457631e-17 2.772996513286298e-15  0.
-2.7025020938339353e-17 2.7374508119254006e-15  0.
-6.02131004258465e-17 2.6538512498025825e-15  0.
-1.114904617183772e-16 2.4888915094401906e-15  0.
-1.8133300888597054e-16 2.207656393784667e-15  0.
-2.7089006003714454e-16 1.7993684948401915e-15  0.
-9.584879571784172e-16 1.850960215280611e-15  0.
0.0 1.2209284230125807e-13  0.
-4.48294125135053e-23 1.2209284326676485e-13  0.
-9.089701168669666e-25 1.220928433718413e-13  0.
-4.8784612878518055e-27 1.2209284337334662e-13  0.
1.3081014848275885e-27 1.2209284337336995e-13  0.
4.43316137865835e-30 1.2209284337337134e-13  0.
2.111196955305895e-30 1.2209284337337134e-13  0.
-1.8594184449796637e-29 1.2209284337337129e-13  0.
-1.0225380869392464e-26 1.2209284337335203e-13  0.
-5.3458428498305e-24 1.2209284336534785e-13  0.
-2.6525825330338945e-21 1.220928422395197e-13  0.
-1.5265825445493727e-19 1.2209274325457287e-13  0.
-4.2279589165309475e-18 1.22089563633735e-13  0.
-6.564866455972689e-17 1.2202627125705199e-13  0.
-2.8069855465217764e-16 1.2170533340103633e-13  0.
-9.398574652107417e-16 1.2055757700295387e-13  0.
-2.262508500471628e-15 1.1752606753829454e-13  0.
-4.614405911920156e-15 1.1098653213427246e-13  0.
-7.797037137240493e-15 9.918073661846511e-14  0.
-1.2191320002252664e-14 8.140688761561187e-14  0.
-4.352057985994721e-14 8.413719926688192e-14  0.
0.0 4.235651565263012e-12  0.
-1.3297317387810565e-22 4.235651564574826e-12  0.
-9.619663071916152e-28 4.2356515644852235e-12  0.
8.874673646648664e-26 4.235651564486005e-12  0.
-9.735345144277436e-28 4.235651564486114e-12  0.
5.635598686237012e-28 4.2356515644861145e-12  0.
-7.520581969944557e-29 4.2356515644861145e-12  0.
-5.632511987461703e-30 4.235651564486114e-12  0.
-2.4469657868729405e-26 4.23565156448606e-12  0.
-1.0342074870746189e-23 4.23565156445874e-12  0.
-9.28684641666165e-21 4.2356515587710994e-12  0.
-5.210017743934247e-19 4.235651284489917e-12  0.
-1.830150670851109e-17 4.235640025641109e-12  0.
-4.346439127983114e-16 4.235320243460879e-12  0.
-5.76358539955416e-15 4.2297893044519926e-12  0.
-2.2013761618509265e-14 4.204380268405329e-12  0.
-6.696424312225986e-14 4.121636836588267e-12  0.
-1.451015152147081e-13 3.923019160384778e-12  0.
-2.6830754538779615e-13 3.5351437735149672e-12  0.
-4.3248249262563977e-13 2.924958644213416e-12  0.
-1.5760677265839593e-12 3.043187942937503e-12  0.
0.0 1.1297177611660317e-10  0.
1.8742516832424752e-22 1.1297177611125147e-10  0.
-1.7840985324038354e-24 1.1297177611109645e-10  0.
-2.7138875555620053e-25 1.129717761110948e-10  0.
5.978738976406088e-26 1.1297177611109456e-10  0.
-4.522081523325095e-27 1.1297177611109464e-10  0.
-7.814165487829459e-28 1.1297177611109465e-10  0.
6.373415828914822e-28 1.1297177611109464e-10  0.
-4.824808060438871e-26 1.129717761110945e-10  0.
-2.5645271176503934e-23 1.1297177611102407e-10  0.
-2.5394687124690502e-20 1.1297177610081141e-10  0.
-1.3929220312235088e-18 1.1297177548840288e-10  0.
-5.751477940669122e-17 1.1297174666157772e-10  0.
-1.7397846910064118e-15 1.1297072209289179e-10  0.
-3.522475344375611e-14 1.1294548669162189e-10  0.
-3.8954771631959895e-13 1.1257390041114411e-10  0.
-1.3110986756048304e-12 1.1104499611217065e-10  0.
-3.5681406759122927e-12 1.0657753236802689e-10  0.
-6.8676885199208725e-12 9.698695640982826e-11  0.
-1.2055501896722164e-11 8.100950085801511e-11  0.
-4.387623197194129e-11 8.485210920020358e-11  0.
0.0 2.226476209561369e-09  0.
-5.227477053617467e-22 2.2264762095647047e-09  0.
-7.118584796790032e-24 2.2264762095646824e-09  0.
3.1934799989289173e-24 2.2264762095646555e-09  0.
-6.418586237980413e-25 2.226476209564659e-09  0.
1.2986810506539646e-26 2.2264762095646588e-09  0.
5.4358292411746794e-27 2.2264762095646584e-09  0.
4.353306329301917e-27 2.2264762095646584e-09  0.
-3.190238361860431e-25 2.2264762095646584e-09  0.
-1.246204760282012e-22 2.2264762095645215e-09  0.
-5.246578885292661e-20 2.2264762095478695e-09  0.
-3.0644827933148533e-18 2.2264762084594855e-09  0.
-1.4171818995779448e-16 2.22647615140403e-09  0.
-5.027787824167693e-15 2.226473803730005e-09  0.
-1.2903032361876925e-13 2.2264019442216143e-09  0.
-2.178316593800377e-12 2.2248909350134337e-09  0.
-1.948995648015167e-11 2.206452443958642e-09  0.
-5.683082615755354e-11 2.139506016082965e-09  0.
-1.357848543615422e-10 1.9680554733709755e-09  0.
-2.4414264196846706e-10 1.6618359223519838e-09  0.
-9.165931318190121e-10 1.7602035573040576e-09  0.
0.0 3.073970879315706e-08  0.
-2.381906832917768e-22 3.073970879315712e-08  0.
1.3056596239942355e-24 3.0739708793157796e-08  0.
-4.1492572345927823e-23 3.0739708793157955e-08  0.
1.7754238788753532e-25 3.0739708793157915e-08  0.
-1.5524463134254278e-26 3.0739708793157915e-08  0.
3.9254368461450953e-26 3.0739708793157915e-08  0.
3.1763735811201884e-26 3.0739708793157915e-08  0.
-2.6948420563978043e-24 3.0739708793157915e-08  0.
-4.1077919104710914e-22 3.0739708793157525e-08  0.
-9.260712250309857e-20 3.0739708793135e-08  0.
-5.693035058762796e-18 3.073970879154912e-08  0.
-2.8595841613912127e-16 3.0739708701723336e-08  0.
-1.1312181572760587e-14 3.0739704620029766e-08  0.
-3.387829120071273e-13 3.0739560418598575e-08  0.
-7.210574563804925e-12 3.0735828928676186e-08  0.
-9.855249771118191e-11 3.067017248558213e-08  0.
-6.849327388377924e-10 3.003041781445184e-08  0.
-1.7009329025971074e-09 2.8030233359070043e-08  0.
-3.7292883562618035e-09 2.3966834155319322e-08  0.
-1.333397922296926e-08 2.560370969127657e-08  0.
0.0 2.7609415522235967e-07  0.
9.360679541541436e-22 2.760941552223664e-07  0.
-1.026644638816327e-21 2.7609415522236326e-07  0.
3.9199567961360084e-23 2.760941552223627e-07  0.
-6.114250095952464e-25 2.7609415522236263e-07  0.
2.055200081080896e-24 2.7609415522236263e-07  0.
4.950523288530106e-25 2.7609415522236263e-07  0.
-3.4390231092367885e-24 2.7609415522236263e-07  0.
-1.1150968108627563e-23 2.7609415522236263e-07  0.
-7.995011143845561e-22 2.7609415522236263e-07  0.
-1.4009275264576832e-19 2.760941552223362e-07  0.
-9.11096672807761e-18 2.7609415522045913e-07  0.
-4.84584304744927e-16 2.7609415510811297e-07  0.
-2.067266238076041e-14 2.760941496246791e-07  0.
-6.855365970249332e-13 2.760939375035075e-07  0.
-1.6913622769526314e-11 2.7608761464566225e-07  0.
-2.8979383190912225e-10 2.7595233835011714e-07  0.
-3.080706176859689e-09 2.740109326450437e-07  0.
-1.5818897087740372e-08 2.5977911476545645e-07  0.
-3.569443881489065e-08 2.259596063750529e-07  0.
-1.3163878601216858e-07 2.447493462865896e-07  0.
0.0 1.4552011031810621e-06  0.
1.9246951744796285e-21 1.45520110318105e-06  0.
-1.1391659977600316e-21 1.4552011031810545e-06  0.
4.1806185031074976e-23 1.4552011031810558e-06  0.
3.821406309970287e-26 1.4552011031810558e-06  0.
-1.0174494300295896e-24 1.4552011031810558e-06  0.
-2.5937573750798677e-24 1.4552011031810558e-06  0.
9.672912564299831e-24 1.4552011031810558e-06  0.
-1.7099777592965648e-22 1.4552011031810558e-06  0.
-1.0883358698381747e-21 1.455201103181055e-06  0.
-1.8850670542149124e-19 1.4552011031810314e-06  0.
-1.266948301574406e-17 1.455201103179298e-06  0.
-7.002584283555273e-16 1.455201103071862e-06  0.
-3.139398105065684e-14 1.4552010975916946e-06  0.
-1.1121973955044781e-12 1.4552008713800456e-06  0.
-3.00913046039833e-11 1.4551935707757073e-06  0.
-5.921423663573286e-10 1.4550136653585185e-06  0.
-7.862491767874716e-09 1.4519216062894274e-06  0.
-6.202175302096376e-08 1.4174772071222931e-06  0.
-2.3785127382077515e-07 1.263264143991407e-06  0.
-7.409091380983241e-07 1.3532349606972415e-06  0.
0.0 4.029877501759487e-06  0.
9.079470322173889e-22 4.02987750175949e-06  0.
-3.78319224687058e-23 4.029877501759489e-06  0.
-2.97305410915688e-23 4.029877501759489e-06  0.
-5.426396960157804e-24 4.029877501759489e-06  0.
-8.177809503336412e-24 4.029877501759489e-06  0.
1.6312628185685644e-24 4.029877501759489e-06  0.
-1.875116308723544e-23 4.029877501759489e-06  0.
-6.744256693729933e-22 4.029877501759489e-06  0.
-1.3317338268562625e-21 4.029877501759489e-06  0.
-2.2602421029109734e-19 4.029877501759474e-06  0.
-1.5389567847380785e-17 4.029877501758428e-06  0.
-8.699942790235377e-16 4.02987750169227e-06  0.
-4.0120318769498046e-14 4.029877498219775e-06  0.
-1.4756219709489499e-12 4.029877350175354e-06  0.
-4.204267240427532e-11 4.029872296344733e-06  0.
-8.941976469738224e-10 4.029739848695093e-06  0.
-1.3457074951952569e-08 4.027131364361265e-06  0.
-1.3318647892134685e-07 3.9939149841855e-06  0.
-7.592014321041502e-07 3.7725531761156273e-06  0.
-2.1845300103000934e-06 3.9013868358655095e-06  0.
0.0 6.449999999999994e-06  0.
-1.1675924839483206e-21 6.449999999999994e-06  0.
7.337100115142943e-23 6.449999999999994e-06  0.
0.0 6.449999999999994e-06  0.
0.0 6.449999999999994e-06  0.
0.0 6.449999999999994e-06  0.
6.902415147383826e-24 6.449999999999994e-06  0.
-2.952514050240788e-23 6.449999999999994e-06  0.
-1.0450065462823615e-21 6.449999999999994e-06  0.
-1.142887092154363e-21 6.449999999999994e-06  0.
-2.4143967975225443e-19 6.449999999999994e-06  0.
-1.6410045443363657e-17 6.449999999999994e-06  0.
-9.345960830651074e-16 6.449999999999994e-06  0.
-4.3501624073664426e-14 6.449999999999994e-06  0.
-1.6193001420758128e-12 6.449999999999994e-06  0.
-4.693915219135865e-11 6.449999999999994e-06  0.
-1.0232718893954897e-09 6.449999999999994e-06  0.
-1.6088238071995254e-08 6.449999999999994e-06  0.
-1.707553685125849e-07 6.449999999999994e-06  0.
-1.1062170604110388e-06 6.449999999999994e-06  0.
-3.1247574046548325e-06 6.449999999999994e-06  0.
</DataArray>
<DataArray type="Float64" Name="sigma_xx" NumberOfComponents="1" format="ascii" >
0.0 
0.0 
0.0 
0.0 
0.0 
0.0 
0.0 
0.0 
0.0 
0.0 
0.0 
0.0 
0.0 
0.0 
0.0 
0.0 
0.0 
0.0 
0.0 
0.0 
0.0 
0.0 
0.0 
0.0 
0.0 
0.0 
0.0 
0.0 
0.0 
0.0 
0.0 
0.0 
0.0 
0.0 
0.0 
0.0 
0.0 
0.0 
0.0 
0.0 
0.0 
0.0 
0.0 
0.0 
0.0 
0.0 
0.0 
0.0 
0.0 
0.0 
0.0 
0.0 
0.0 
0.0 
0.0 
0.0 
0.0 
0.0 
0.0 
0.0 
0.0 
0.0 
0.0 
0.0 
0.0 
0.0 
0.0 
0.0 
0.0 
0.0 
0.0 
0.0 
0.0 
0.0 
0.0 
0.0 
0.0 
0.0 
0.0 
0.0 
0.0 
0.0 
0.0 
0.0 
0.0 
0.0 
0.0 
0.0 
0.0 
0.0 
0.0 
0.0 
0.0 
0.0 
0.0 
0.0 
0.0 
0.0 
0.0 
0.0 
0.0 
0.0 
0.0 
0.0 
0.0 
0.0 
0.0 
0.0 
0.0 
0.0 
0.0 
0.0 
0.0 
0.0 
0.0 
0.0 
0.0 
0.0 
0.0 
0.0 
0.0 
0.0 
0.0 
0.0 
0.0 
0.0 
0.0 
0.0 
0.0 
0.0 
0.0 
0.0 
0.0 
0.0 
0.0 
0.0 
0.0 
0.0 
0.0 
0.0 
0.0 
0.0 
0.0 
0.0 
0.0 
0.0 
0.0 
0.0 
0.0 
0.0 
0.0 
0.0 
0.0 
0.0 
0.0 
0.0 
0.0 
0.0 
0.0 
0.0 
0.0 
0.0 
0.0 
0.0 
0.0 
0.0 
0.0 
0.0 
2.48689957516035e-06 
2.48689957516035e-06 
2.48689957516035e-06 
2.48689957516035e-06 
2.48689957516035e-06 
2.48689957516035e-06 
2.48689957516035e-06 
2.48689957516035e-06 
2.48689957516035e-06 
2.48689957516035e-06 
2.48689957516035e-06 
2.48689957516035e-06 
2.48689957516035e-06 
2.409183963436589e-06 
2.176037128265306e-06 
1.942890293094023e-06 
1.7930101847696272e-06 
1.7152945730458664e-06 
1.5543122344752187e-06 
1.0325074129013952e-06 
6.661338147750937e-07 
0.00014486190025309037 
0.00014486190025309037 
0.00014486190025309037 
0.00014486190025309037 
0.00014486190025309037 
0.00014486190025309037 
0.00014486190025309037 
0.00014486190025309037 
0.00014486190025309037 
0.00014486190025309037 
0.00014486190025309037 
0.00014486190025309037 
0.00014471202014476598 
0.00014403478409974463 
0.00014243051182916128 
0.0001390554338343008 
0.0001327493670544299 
0.00012231882173807657 
0.00010644818360105998 
7.797096301942472e-05 
5.8941740377349534e-05 
0.007806999491322128 
0.007806999491322127 
0.007806999491322127 
0.007806999491322127 
0.007806999491322127 
0.007806999491322127 
0.007806999491322127 
0.007806999491322127 
0.007806999491322127 
0.007806999491322127 
0.007806999491322127 
0.007805966983909226 
0.0077999884329216194 
0.00777723996314705 
0.007713241156892533 
0.007561573589498491 
0.0072576944454283395 
0.006722278289572612 
0.005876188424736027 
0.004312200596601199 
0.0032572944341779913 
0.3417150784557065 
0.3417150784557065 
0.3417150784557065 
0.3417150784557065 
0.3417150784557065 
0.3417150784557065 
0.3417150784557065 
0.3417150784557065 
0.3417150784557065 
0.3417150784557065 
0.34171478424660495 
0.3417058191956811 
0.3415715099652771 
0.3409641124996198 
0.3388530400716404 
0.33339446758873226 
0.3214835730958042 
0.2994379966203552 
0.26315014056699215 
0.19371634851772504 
0.1466064714072956 
11.852015013857905 
11.852015013857905 
11.852015013857905 
11.852015013857905 
11.852015013857905 
11.852015013857905 
11.852015013857905 
11.852015013857905 
11.852015013857905 
11.852015013857905 
11.852013620528009 
11.851971198906238 
11.851031517240425 
11.839255803502976 
11.791389831206086 
11.639720914891068 
11.282419748459557 
10.568792596643558 
9.343190893185135 
6.90043421847086 
5.2122732574488815 
315.9791464035776 
315.9791464035776 
315.9791464035776 
315.9791464035776 
315.9791464035776 
315.9791464035776 
315.9791464035776 
315.9791464035776 
315.9791464035776 
315.9791464035776 
315.9791426177171 
315.9789993323335 
315.9749442760427 
315.8985996398743 
315.103361481217 
312.240254518592 
304.08543600923815 
286.7696111075179 
255.02854802961207 
188.9006530503278 
143.2125168732145 
6222.286102941508 
6222.286102941508 
6222.286102941508 
6222.286102941508 
6222.286102941508 
6222.286102941508 
6222.286102941508 
6222.286102941508 
6222.286102941508 
6222.286102869343 
6222.286094098581 
6222.285711854345 
6222.272968858798 
6221.968824832167 
6217.2394513781965 
6177.559693229527 
6053.191400048894 
5740.731128706098 
5140.537869297023 
3814.687729028486 
2865.696710735442 
85757.15256753378 
85757.15256753378 
85757.15256753378 
85757.15256753378 
85757.15256753378 
85757.15256753378 
85757.15256753378 
85757.15256753378 
85757.15256753378 
85757.15256731729 
85757.1525495204 
85757.15170803796 
85757.12027429347 
85756.2418208335 
85739.02822904542 
85525.18857656285 
84140.7385279602 
80447.5029184348 
72319.48831928623 
53657.24431106165 
40616.75543675089 
767000.334300638 
767000.334300638 
767000.334300638 
767000.334300638 
767000.334300638 
767000.334300638 
767000.334300638 
767000.334300638 
767000.334300638 
767000.3343001273 
767000.3342691187 
767000.3327026162 
767000.2691949503 
766998.2911325365 
766953.1572677325 
766251.6469562561 
759612.3892475491 
728370.2859064903 
657847.0455793792 
482900.283622578 
353215.62382311083 
3992553.281883969 
3992553.281883969 
3992553.281883969 
3992553.281883969 
3992553.281883969 
3992553.281883969 
3992553.281883969 
3992553.281883969 
3992553.281883969 
3992553.2818830195 
3992553.2818358685 
3992553.279329496 
3992553.171647205 
3992549.5553141944 
3992458.2460775003 
3990817.775689602 
3971554.9659844656 
3842007.0292462427 
3424150.918586093 
2442219.5833289605 
1766306.5594367967 
10533047.275210157 
10533047.275210157 
10533047.275210157 
10533047.275210157 
10533047.275210157 
10533047.275210157 
10533047.275210157 
10533047.275210157 
10533047.275210157 
10533047.275208997 
10533047.275145525 
10533047.271663472 
10533047.116134223 
10533041.62706127 
10532893.59122667 
10529979.16746497 
10490803.847598601 
10166487.866389904 
8750506.825002855 
5583051.289180121 
3543664.408511563 
14020397.575192085 
14020397.575192086 
14020397.575192086 
14020397.575192086 
14020397.575192086 
14020397.575192086 
14020397.575192086 
14020397.575192086 
14020397.575192086 
14020397.575191008 
14020397.575115396 
14020397.57088502 
14020397.377679424 
14020390.363019487 
14020193.955102745 
14016122.626785904 
13957059.37278542 
13407286.408801153 
10558205.54207285 
4347394.410624408 
491072.68991021346 
13585485.150423389 
13585485.150423389 
13585485.150423389 
13585485.150423389 
13585485.150423389 
13585485.150423389 
13585485.150423389 
13585485.150423389 
13585485.150423389 
13585485.15042239 
13585485.150342397 
13585485.145829942 
13585484.938258791 
13585477.33161642 
13585261.76943042 
13580716.286882453 
13513157.532849487 
12858837.102391131 
9282854.966525363 
1547374.33486524 
-3203223.1612211606 
</DataArray>
<DataArray type="Float64" Name="sigma_yy" NumberOfComponents="1" format="ascii" >
0.0 
0.0 
0.0 
0.0 
0.0 
0.0 
0.0 
0.0 
0.0 
0.0 
0.0 
0.0 
0.0 
0.0 
0.0 
0.0 
0.0 
0.0 
0.0 
0.0 
0.0 
0.0 
0.0 
0.0 
0.0 
0.0 
0.0 
0.0 
0.0 
0.0 
0.0 
0.0 
0.0 
0.0 
0.0 
0.0 
0.0 
0.0 
0.0 
0.0 
0.0 
0.0 
0.0 
0.0 
0.0 
0.0 
0.0 
0.0 
0.0 
0.0 
0.0 
0.0 
0.0 
0.0 
0.0 
0.0 
0.0 
0.0 
0.0 
0.0 
0.0 
0.0 
0.0 
0.0 
0.0 
0.0 
0.0 
0.0 
0.0 
0.0 
0.0 
0.0 
0.0 
0.0 
0.0 
0.0 
0.0 
0.0 
0.0 
0.0 
0.0 
0.0 
0.0 
0.0 
0.0 
0.0 
0.0 
0.0 
0.0 
0.0 
0.0 
0.0 
0.0 
0.0 
0.0 
0.0 
0.0 
0.0 
0.0 
0.0 
0.0 
0.0 
0.0 
0.0 
0.0 
0.0 
0.0 
0.0 
0.0 
0.0 
0.0 
0.0 
0.0 
0.0 
0.0 
0.0 
0.0 
0.0 
0.0 
0.0 
0.0 
0.0 
0.0 
0.0 
0.0 
0.0 
0.0 
0.0 
0.0 
0.0 
0.0 
0.0 
0.0 
0.0 
0.0 
0.0 
0.0 
0.0 
0.0 
0.0 
0.0 
0.0 
0.0 
0.0 
0.0 
0.0 
0.0 
0.0 
0.0 
0.0 
0.0 
0.0 
0.0 
0.0 
0.0 
0.0 
0.0 
0.0 
0.0 
0.0 
0.0 
0.0 
0.0 
0.0 
0.0 
0.0 
0.0 
0.0 
4.61852778244065e-06 
4.61852778244065e-06 
4.61852778244065e-06 
4.61852778244065e-06 
4.61852778244065e-06 
4.61852778244065e-06 
4.61852778244065e-06 
4.61852778244065e-06 
4.61852778244065e-06 
4.61852778244065e-06 
4.61852778244065e-06 
4.61852778244065e-06 
4.61852778244065e-06 
4.47419878923938e-06 
4.041211809635569e-06 
3.608224830031758e-06 
3.425038030968607e-06 
3.2807090377673367e-06 
2.8865798640254066e-06 
2.2981616609740736e-06 
1.9984014443252813e-06 
0.0002690292433271679 
0.0002690292433271679 
0.0002690292433271679 
0.0002690292433271679 
0.0002690292433271679 
0.0002690292433271679 
0.0002690292433271679 
0.0002690292433271679 
0.0002690292433271679 
0.0002690292433271679 
0.0002690292433271679 
0.0002690292433271679 
0.00026884605652810473 