<?xml version="1.0"?>
<VTKFile type="UnstructuredGrid" version="0.1" byte_order="LittleEndian" compressor="vtkZLibDataCompressor">
<UnstructuredGrid>
<Piece NumberOfPoints="441" NumberOfCells="400">
<PointData>
<DataArray type="Float64" Name="displacement" NumberOfComponents="3" format="ascii" >
0.0 1.0710656980539204e-64  0.
2.2545868916740444e-64 1.1835660900280859e-64  0.
2.9678753595153762e-64 -4.700016377168311e-65  0.
-5.5539264988986405e-64 -8.050168352636634e-64  0.
-6.790063913177971e-63 -5.428927579896175e-63  0.
-3.86730263586474e-62 -2.645140515199914e-62  0.
-1.703582252688559e-61 -1.052264760521087e-61  0.
-6.1309857965892065e-61 -3.374964056770882e-61  0.
-1.8763196303270034e-60 -9.256914958116009e-61  0.
-4.9450381967843083e-60 -2.1429731298408603e-60  0.
-1.1433316202270471e-59 -4.345238747408151e-60  0.
-2.336025792367956e-59 -7.581643758425086e-60  0.
-4.256414408996899e-59 -1.1622231654786978e-59  0.
-6.936953141588879e-59 -1.5183259495625028e-59  0.
-1.0136164109762656e-58 -1.6808896359318782e-59  0.
-1.324407938632459e-58 -1.4271751142800258e-59  0.
-1.5367469867261172e-58 -6.952806026915397e-60  0.
-1.5559373792250973e-58 4.9532055902458577e-60  0.
-1.325465397429133e-58 1.877666576043837e-59  0.
-8.039325201055366e-59 2.747772816804498e-59  0.
-4.6242732811195565e-59 5.820435122753824e-59  0.
0.0 4.664893935906716e-61  0.
7.359235028655071e-61 2.696585213750912e-61  0.
1.2227699241420109e-60 2.172619665487921e-61  0.
9.1332680884289e-61 -5.275605779714695e-61  0.
-3.634142099607595e-60 -4.026139571558494e-60  0.
-3.2479027412083976e-59 -2.4850629559048416e-59  0.
-1.7546335224462965e-58 -1.1826537574310463e-58  0.
-7.484848805586436e-58 -4.5519888234839525e-58  0.
-2.6126583255954165e-57 -1.4102377863920898e-57  0.
-7.716554990285222e-57 -3.696727473850014e-57  0.
-1.953522054305063e-56 -8.128426578847587e-57  0.
-4.3140301246605585e-56 -1.548858132269765e-56  0.
-8.370678171708293e-56 -2.50970949278437e-56  0.
-1.43871108046593e-55 -3.509410198262583e-56  0.
-2.1944411160999033e-55 -4.051044353063353e-56  0.
-2.9700154388510475e-55 -3.708129748246159e-56  0.
-3.542704902713206e-55 -2.018396108142508e-56  0.
-3.662869594195437e-55 7.963548339802695e-57  0.
-3.1677494634684977e-55 4.326131021862273e-56  0.
-1.9361392446280832e-55 6.555420265383806e-56  0.
-1.1177766719680473e-55 1.4102791875425772e-55  0.
0.0 1.593270963189652e-57  0.
3.7717458457485776e-57 2.1799294618195302e-57  0.
6.576154227578652e-57 6.2549754015327484e-58  0.
7.14723928464084e-57 -5.508673549990077e-59  0.
1.566954991770615e-57 -5.534251435353622e-57  0.
-3.8403489467593103e-56 -3.449394652788973e-56  0.
-2.7549324161689914e-55 -2.0288188856399866e-55  0.
-1.4189703406052862e-54 -9.417417040905796e-55  0.
-5.828534847191468e-54 -3.471552443292158e-54  0.
-1.9603524545329709e-53 -1.0313647751239337e-53  0.
-5.547042152593337e-53 -2.557689479144471e-53  0.
-1.3394579840966643e-52 -5.294570223441951e-53  0.
-2.8037489578290587e-52 -9.356451274907283e-53  0.
-5.1231676015377426e-52 -1.3849805948323635e-52  0.
-8.222937870529823e-52 -1.7162771497388007e-52  0.
-1.1589954256345037e-51 -1.6524519819663865e-52  0.
-1.4278048937105866e-51 -1.0356289172393526e-52  0.
-1.512569005718254e-51 1.7870029035911165e-53  0.
-1.330621174706506e-51 1.715658702828143e-52  0.
-8.211185229406476e-52 2.761113451846012e-52  0.
-4.747023251131255e-52 6.0088006931740336e-52  0.
0.0 1.099838937203769e-53  0.
1.7007815852048332e-53 6.016696080611656e-54  0.
2.8817014013118073e-53 5.798806395481463e-54  0.
3.3337826247444065e-53 -1.2776687639861079e-54  0.
2.5889480325416583e-53 -6.181174708339334e-54  0.
-2.342772360025321e-53 -4.321644867785115e-53  0.
-3.2707764230137474e-52 -2.609077271581103e-52  0.
-2.0619169930650128e-51 -1.4762198414602788e-51  0.
-1.019060003110842e-50 -6.661285746560492e-51  0.
-4.0091043788726765e-50 -2.3266719142730754e-50  0.
-1.2936243507924292e-49 -6.607643023919028e-50  0.
-3.4900206241145816e-49 -1.5372018756114026e-49  0.
-8.000462481762828e-49 -2.9761682366988455e-49  0.
-1.5777491100831065e-48 -4.8055169794939036e-49  0.
-2.6934043258308675e-48 -6.357110068432005e-49  0.
-3.991840036179549e-48 -6.6347763500336586e-49  0.
-5.1141151840420745e-48 -4.588219407138361e-49  0.
-5.580517936241114e-48 -1.1467662278415679e-50  0.
-5.0137487763291594e-48 6.079324489224527e-49  0.
-3.127404798377832e-48 1.038360613146595e-48  0.
-1.8154844554813305e-48 2.3056976304845444e-48  0.
0.0 3.514111370406421e-50  0.
6.917792882986984e-50 3.4066560002424798e-50  0.
1.1607770567500635e-49 1.2867402620094937e-50  0.
1.2870011060479254e-49 -2.4783322549320303e-52  0.
1.1210498438772902e-49 -1.6353066611432756e-50  0.
4.921211130771236e-50 -4.664370861902514e-50  0.
-2.9271513023031878e-49 -2.9588908446303353e-49  0.
-2.363253627739718e-48 -1.7781222123986892e-48  0.
-1.3676485603800648e-47 -9.551374672280403e-48  0.
-6.514460189588843e-47 -4.1976581727596543e-47  0.
-2.4481856152661547e-46 -1.378759273792129e-46  0.
-7.576118394778548e-46 -3.753569561006222e-46  0.
-1.947091100022541e-45 -8.150242320948736e-46  0.
-4.227857419132866e-45 -1.4673037826846463e-45  0.
-7.816172972594252e-45 -2.123185658839472e-45  0.
-1.2350154496598024e-44 -2.4137884284691727e-45  0.
-1.664252587420295e-44 -1.878493176814081e-45  0.
-1.8855960612671746e-44 -3.507423264340434e-46  0.
-1.7397850634797247e-44 1.919130045524846e-45  0.
-1.100617277495325e-44 3.605634198631612e-45  0.
-6.411829793271514e-45 8.181213904890762e-45  0.
0.0 1.3618968675571215e-46  0.
2.7564263624570285e-46 1.3951749056412136e-46  0.
4.520842830627959e-46 3.719465554835191e-47  0.
4.764938037673716e-46 -1.2946165459492997e-47  0.
3.893364143990241e-46 -7.4115001142108e-47  0.
2.476656853327121e-46 -6.774518694200604e-47  0.
-6.285507512672749e-47 -2.434378534190683e-46  0.
-2.2421565682161317e-45 -1.9400127753772625e-45  0.
-1.5273354119159627e-44 -1.1113833354158068e-44  0.
-8.182088734082957e-44 -5.553665540825292e-44  0.
-3.746740589697093e-43 -2.376759535014267e-43  0.
-1.3427708730751072e-42 -7.314481152497474e-43  0.
-3.986921154950323e-42 -1.915080188975444e-42  0.
-9.785460221236448e-42 -3.888028459577738e-42  0.
-2.0087577472008216e-41 -6.42107060320719e-42  0.
-3.4614497870176727e-41 -8.116778437334094e-42  0.
-4.99121789186756e-41 -7.178088226757865e-42  0.
-5.950199405667607e-41 -2.4792110643704606e-42  0.
-5.687842716915619e-41 5.506075010229135e-42  0.
-3.662996743384869e-41 1.1760422963363164e-41  0.
-2.147460420935163e-41 2.753925402827381e-41  0.
0.0 6.869308710977469e-43  0.
1.2191523379385132e-42 5.311659719092718e-43  0.
1.904555400043301e-42 1.582629772150572e-43  0.
1.876003506534012e-42 -1.902865811950908e-43  0.
1.3601066821280076e-42 -3.236881834398157e-43  0.
7.425647309363136e-43 -2.9495503710974955e-43  0.
2.923607040004349e-43 -1.556673566825784e-43  0.
-1.0087657997437312e-42 -1.149851318300105e-42  0.
-1.4812468857232516e-41 -1.2680059262176923e-41  0.
-9.235506249336305e-41 -6.499487669039847e-41  0.
-4.538396061373561e-40 -2.9708001954792233e-40  0.
-1.9613053825859797e-39 -1.212312273092466e-39  0.
-6.646324951368333e-39 -3.478026918723256e-39  0.
-1.8900857054570564e-38 -8.787927102766508e-39  0.
-4.485576406791972e-38 -1.7187236939106555e-38  0.
-8.718178461921237e-38 -2.5177596267466906e-38  0.
-1.3977621516482226e-37 -2.7384181899041026e-38  0.
-1.798974305042723e-37 -1.307123023283883e-38  0.
-1.8177102199575236e-37 1.282821777392087e-38  0.
-1.2012458246175502e-37 3.8353128551143955e-38  0.
-6.991097461284544e-38 9.098600363512642e-38  0.
0.0 5.822167204291796e-39  0.
6.306780588883686e-39 4.525923823248562e-40  0.
8.616963949515527e-39 1.9334272773414302e-39  0.
8.13812096217364e-39 -2.475597520526167e-39  0.
4.4985747084899955e-39 -1.1343102601615567e-39  0.
2.046803760923187e-39 -1.3272340613980693e-39  0.
3.863388294810329e-40 -3.329512448545501e-40  0.
1.539488540627495e-41 -4.064817406653203e-41  0.
-5.4983102826913345e-39 -5.5006656582600135e-39  0.
-9.118401022948519e-38 -8.033240257130924e-38  0.
-5.225130106086671e-37 -3.5175505323227565e-37  0.
-2.3221033195738382e-36 -1.4507221710336358e-36  0.
-9.439360092089408e-36 -5.6768450893042e-36  0.
-2.976141256611366e-35 -1.4665806934147823e-35  0.
-8.150319590746455e-35 -3.7136063277940754e-35  0.
-1.9447144174167047e-34 -7.597867403300781e-35  0.
-3.617893267184061e-34 -9.095050059495523e-35  0.
-5.370614488297009e-34 -8.632527804661877e-35  0.
-6.000938407691234e-34 3.1451158595638795e-35  0.
-4.090167693642423e-34 1.1775264595443547e-34  0.
-2.4426406684601035e-34 3.2683537471278947e-34  0.
0.0 -3.932124020327029e-36  0.
2.656876387715686e-35 2.998065335243241e-35  0.
3.8956460317850633e-35 -1.651735102428218e-35  0.
2.4422650683835117e-35 1.2081325329212613e-36  0.
1.4055858342951234e-35 -1.1303373138239866e-35  0.
1.460177018380726e-36 -1.3406402063482453e-36  0.
6.012634363260558e-38 -6.181228080998337e-38  0.
-5.587994056200113e-40 3.755415899456737e-40  0.
-5.340096549765174e-38 -6.427192030482866e-38  0.
-2.496258497789168e-35 -2.501997741316748e-35  0.
-4.8910009896309175e-34 -4.402596118800814e-34  0.
-2.5620863769883007e-33 -1.6358360707515315e-33  0.
-1.0155673539273872e-32 -5.973231650187277e-33  0.
-4.3702423278003713e-32 -2.754024209315238e-32  0.
-1.2679391443206398e-31 -5.582757952142758e-32  0.
-3.34320346937096e-31 -1.5199924406887875e-31  0.
-8.243570176666902e-31 -3.3478494713453726e-31  0.
-1.4273457699355997e-30 -2.830974164997509e-31  0.
-1.9061664620654853e-30 -1.5712844083610668e-31  0.
-1.4502859085551794e-30 4.211360779637727e-31  0.
-8.305417415829661e-31 1.1946324076989304e-30  0.
0.0 1.5662697078763155e-31  0.
1.0642936291958592e-31 -5.532064809983522e-32  0.
8.323929558414682e-32 4.150599176143037e-32  0.
6.937527402721085e-32 -6.064714474738647e-32  0.
3.911103726487143e-33 -3.7520353569982286e-33  0.
9.611675784537769e-35 -1.0030831638136588e-34  0.
-7.714861982212583e-37 6.68061147063912e-37  0.
9.368354939351727e-39 -9.112770372351868e-39  0.
-2.4714057503193674e-37 -3.6413347777833436e-37  0.
-2.2662769799775392e-34 -2.7599828033389434e-34  0.
-1.0877032808399364e-31 -1.0896453912905677e-31  0.
-2.0339641901496842e-30 -1.814414717042629e-30  0.
-9.731174266490597e-30 -5.8905797203598596e-30  0.
-3.617845693341908e-29 -2.0678394314808098e-29  0.
-2.010918819837344e-28 -1.481490555282169e-28  0.
-5.428294362980934e-28 -1.9396441357561001e-28  0.
-1.2530907588025214e-27 -5.044467995703257e-28  0.
-2.8722193589281458e-27 -1.2000616747082998e-27  0.
-4.6401919923582514e-27 -3.7943954595262403e-28  0.
-4.146442473534483e-27 3.4827639715413605e-28  0.
-3.384664357485832e-27 4.212555443670216e-27  0.
0.0 -7.229091639307019e-29  0.
1.900878384810803e-28 2.3208757099622115e-28  0.
1.8713751989985797e-28 -1.8917665381078363e-28  0.
6.838759688828508e-30 -6.654614075641539e-30  0.
1.0209954340117903e-31 -1.1152388643884595e-31  0.
-8.658181373711669e-34 6.885494535836973e-34  0.
1.1024635395363081e-35 -9.54535109005019e-36  0.
1.1497837616294086e-38 -3.3190134331707735e-38  0.
-1.444983827689031e-36 -2.052219306762656e-36  0.
-1.0672581586843552e-33 -1.5664091321765335e-33  0.
-8.79283531411262e-31 -1.0963025473875661e-30  0.
-4.323391854649953e-28 -4.4139352643848625e-28  0.
-5.889144234580509e-27 -5.1171373949541336e-27  0.
-2.604340581796682e-26 -1.5442588609772618e-26  0.
-1.4055057765618649e-25 -9.376474367737714e-26  0.
-9.063031875906382e-25 -5.500628325066218e-25  0.
-1.9766278320169496e-24 -3.052364471136006e-25  0.
-3.0259164305180603e-24 -7.694351044919686e-25  0.
-6.771208846319522e-24 -2.0880485600782793e-24  0.
-8.005191578552143e-24 1.2175290971634808e-25  0.
-8.274989674682214e-24 7.411593991107341e-24  0.
0.0 3.803542606150577e-20  0.
3.77665294988509e-25 3.803469614413257e-20  0.
6.400484011567785e-27 3.80349276014519e-20  0.
6.505542565074821e-29 3.803493459942801e-20  0.
-6.6501034339592455e-31 3.80349346793964e-20  0.
9.283459074413498e-33 3.803493467891545e-20  0.
1.1556031234883087e-35 3.803493467892308e-20  0.
2.6281432923785905e-37 3.803493467892311e-20  0.
-9.53044833921577e-36 3.8034934678923105e-20  0.
-6.160064215008936e-33 3.803493467891434e-20  0.
-4.457352163379039e-30 3.803493467249992e-20  0.
-2.999057606913213e-27 3.803493087885801e-20  0.
-1.3573677286834103e-24 3.803366609073692e-20  0.
-1.2117016123828145e-23 3.802644540829974e-20  0.
-5.0058016298318237e-23 3.801058928144409e-20  0.
-3.8057137102194556e-22 3.760939942743207e-20  0.
-1.0456124613077373e-21 3.5606844319522686e-20  0.
-1.5549438250098102e-21 3.314506156646574e-20  0.
-2.2833563705667084e-21 3.001835493392938e-20  0.
-3.8660512244316695e-21 2.2773649316848772e-20  0.
-1.1968707487693323e-20 2.3702822897524007e-20  0.
0.0 5.6891206173728685e-18  0.
3.1155968387152955e-24 5.6896157033455556e-18  0.
1.9178135339193082e-26 5.6896186789538486e-18  0.
-3.286175058232064e-28 5.689618710994246e-18  0.
5.4392547970375694e-30 5.689618710807249e-18  0.
8.110245203401912e-33 5.689618710811551e-18  0.
1.0540522845137171e-33 5.689618710811571e-18  0.
-8.872606927431918e-35 5.6896187108115725e-18  0.
-1.6601573514653428e-34 5.689618710811573e-18  0.
-2.1834921677977435e-32 5.6896187108115356e-18  0.
-2.1019384001374207e-29 5.689618710779677e-18  0.
-1.4502271111342083e-26 5.68961868974207e-18  0.
-7.202945749659889e-24 5.68960794142032e-18  0.
-2.342650464927308e-21 5.6868734358570434e-18  0.
-1.1621525703655268e-20 5.673148855417112e-18  0.
-4.076888719781496e-20 5.6222612775530014e-18  0.
-9.786804316539397e-20 5.486729824766276e-18  0.
-2.0636127496336014e-19 5.187715061327442e-18  0.
-3.485431524002261e-19 4.640321830408294e-18  0.
-5.42475244110184e-19 3.812033727810341e-18  0.
-2.0068927418954447e-18 3.921676665779344e-18  0.
0.0 6.596398870484052e-16  0.
-2.075788928663344e-24 6.596398646749445e-16  0.
-7.754637636701199e-26 6.596398721960061e-16  0.
2.1320301084444272e-27 6.59639872155956e-16  0.
3.934290791517721e-30 6.596398721574446e-16  0.
9.180751336044184e-31 6.596398721574551e-16  0.
-5.520489622035609e-33 6.596398721574561e-16  0.
4.077231496529067e-33 6.596398721574561e-16  0.
-1.932063588120752e-32 6.596398721574561e-16  0.
-1.610182065757659e-32 6.59639872157456e-16  0.
-6.911175675617464e-29 6.596398721573342e-16  0.
-6.364403189286857e-26 6.596398720597468e-16  0.
-3.787073442818119e-23 6.596398091923366e-16  0.
-1.789988745205155e-20 6.596263479985909e-16  0.
-7.550379948241137e-19 6.588831066151627e-16  0.
-2.98211047210013e-18 6.55248130434549e-16  0.
-9.60133981493848e-18 6.429411165955194e-16  0.
-2.1077027587536577e-17 6.128663374524237e-16  0.
-3.966543159808061e-17 5.533480757179908e-16  0.
-6.357265321507595e-17 4.580479418367462e-16  0.
-2.423251448044117e-16 4.736222930984232e-16  0.
0.0 5.902412096274751e-14  0.
-6.845949185260713e-24 5.902411996959006e-14  0.
4.1052568418597766e-25 5.90241199638919e-14  0.
6.478408478998027e-28 5.902411996426812e-14  0.
4.952049358131594e-28 5.902411996427138e-14  0.
-4.175730143731822e-31 5.902411996427188e-14  0.
-9.630468381823498e-32 5.902411996427188e-14  0.
-6.733564336563465e-31 5.902411996427188e-14  0.
-2.0559800372895657e-30 5.902411996427188e-14  0.
-3.1450545972449e-31 5.90241199642719e-14  0.
-2.5760546102830037e-28 5.902411996427143e-14  0.
-2.080013417938609e-25 5.902411996388701e-14  0.
-3.05813716968359e-22 5.902411965735228e-14  0.
-7.677267643312222e-20 5.90240740448314e-14  0.
-5.1134354865456095e-18 5.902040282688005e-14  0.
-1.7005995954514564e-16 5.885259793995264e-14  0.
-5.88200768399503e-16 5.811923293933975e-14  0.
-1.708633380267431e-15 5.5883383735645624e-14  0.
-3.3194218577239946e-15 5.0987682476345384e-14  0.
-5.860796528779618e-15 4.261188837308084e-14  0.
-2.2524663892766942e-14 4.426505172893672e-14  0.
0.0 3.934777584365182e-12  0.
5.585206599754209e-23 3.934777586760998e-12  0.
-2.5993352674502147e-25 3.934777586784124e-12  0.
1.564598924072158e-25 3.9347775867838306e-12  0.
-1.2064254678123365e-27 3.93477758678399e-12  0.
0.0 3.93477758678399e-12  0.
3.3310745108223224e-29 3.934777586783988e-12  0.
-4.37849125245564e-29 3.93477758678399e-12  0.
-3.2667841865342983e-28 3.934777586783988e-12  0.
1.830764362240506e-28 3.93477758678399e-12  0.
-1.6208480661910124e-28 3.934777586783989e-12  0.
-7.786769055146884e-25 3.9347775867825954e-12  0.
-1.100693405017147e-21 3.934777586096876e-12  0.
-2.302801281079189e-19 3.934777478000389e-12  0.
-1.9427681631082446e-17 3.934766677796503e-12  0.
-1.0648231375455465e-15 3.934025412347697e-12  0.
-2.8568232308935224e-14 3.905884188385589e-12  0.
-8.477426486649974e-14 3.79709035168336e-12  0.
-2.1812227890348047e-13 3.5050284821167267e-12  0.
-3.8710756685042654e-13 2.961901827807079e-12  0.
-1.5855383613241831e-12 3.1042127992825627e-12  0.
0.0 1.8609500067915113e-10  0.
-2.3272299052349506e-22 1.8609500067790713e-10  0.
1.9878318228015727e-23 1.8609500067779455e-10  0.
-1.104872322906972e-24 1.8609500067781963e-10  0.
2.42569736472723e-28 1.8609500067781875e-10  0.
0.0 1.8609500067781875e-10  0.
-1.5935194357335077e-29 1.8609500067781875e-10  0.
-1.4596001857970529e-27 1.8609500067781875e-10  0.
-1.5466431737029143e-26 1.8609500067781875e-10  0.
1.2155402042917171e-26 1.8609500067781875e-10  0.
-1.1807246958104212e-26 1.8609500067781875e-10  0.
3.535009856693991e-25 1.8609500067781637e-10  0.
-3.1497803167848014e-21 1.8609500067618256e-10  0.
-5.234777091837299e-19 1.8609500048954334e-10  0.
-5.1924586964704746e-17 1.860949784994767e-10  0.
-3.662755249464352e-15 1.8609308937753484e-10  0.
-1.6402269207697623e-13 1.8598318478234036e-10  0.
-3.405561590053996e-12 1.826364494008833e-10  0.
-8.460301499548844e-12 1.7141295583360854e-10  0.
-1.9750244724274958e-11 1.4673226067414435e-10  0.
-7.791864213183261e-11 1.5429455781865065e-10  0.
0.0 5.818063913095714e-09  0.
9.56904931984759e-22 5.818063913098662e-09  0.
-3.3319475913167813e-22 5.818063913098994e-09  0.
8.247371040072598e-25 5.818063913098792e-09  0.
0.0 5.8180639130987905e-09  0.
1.3136084190522872e-26 5.8180639130987905e-09  0.
-2.386504822833277e-26 5.8180639130987905e-09  0.
-3.5538944569648233e-26 5.81806391309879e-09  0.
-1.990253437225489e-25 5.81806391309879e-09  0.
8.846798177317696e-27 5.8180639130987905e-09  0.
3.860794737130705e-26 5.81806391309879e-09  0.
-3.4940756520600277e-25 5.818063913098787e-09  0.
-5.433490976014217e-21 5.8180639130977806e-09  0.
-9.59009240430419e-19 5.818063912846866e-09  0.
-1.0603096617832034e-16 5.8180638803021504e-09  0.
-8.746861083801834e-15 5.818060631601692e-09  0.
-5.022421409633317e-13 5.817827346406087e-09  0.
-1.7764407979984963e-11 5.806494193214172e-09  0.
-2.6906870980381936e-10 5.544278969289568e-09  0.
-5.751931834606888e-10 4.835807766431472e-09  0.
-2.6709275239968136e-09 5.139045495358242e-09  0.
0.0 1.078583412957934e-07  0.
1.3491912349244176e-21 1.0785834129578841e-07  0.
-3.3184614719993254e-22 1.0785834129578813e-07  0.
5.349968833958404e-25 1.0785834129578832e-07  0.
1.1464218929910868e-25 1.0785834129578832e-07  0.
3.8691738888449185e-25 1.0785834129578832e-07  0.
-9.37787429410766e-25 1.0785834129578833e-07  0.
1.5742157810732005e-24 1.0785834129578833e-07  0.
-1.0652903629254883e-23 1.0785834129578832e-07  0.
7.185163995061822e-24 1.0785834129578834e-07  0.
-7.117617653059419e-24 1.0785834129578832e-07  0.
7.24121626339752e-24 1.0785834129578834e-07  0.
-8.891560634364001e-21 1.0785834129578672e-07  0.
-1.4602607963157299e-18 1.0785834129553356e-07  0.
-1.729579752378365e-16 1.0785834126064327e-07  0.
-1.5708662025369203e-14 1.0785833748341776e-07  0.
-1.045337700412506e-12 1.0785802178827871e-07  0.
-4.735687535876738e-11 1.0783943194429939e-07  0.
-1.2661181247402254e-09 1.0709988404409544e-07  0.
-1.3334635289083591e-08 9.571903180960355e-08  0.
-4.993276547584636e-08 9.918815698293685e-08  0.
0.0 9.910307903221923e-07  0.
1.0254743832805251e-22 9.91030790322193e-07  0.
2.5144853519604455e-23 9.91030790322193e-07  0.
-5.2735407077589896e-24 9.91030790322193e-07  0.
-4.203546940967311e-24 9.91030790322193e-07  0.
-4.203546940967311e-24 9.91030790322193e-07  0.
-6.191872411623721e-24 9.91030790322193e-07  0.
9.94759830064138e-25 9.91030790322193e-07  0.
-1.062733094802736e-22 9.910307903221931e-07  0.
6.456385379641979e-23 9.910307903221931e-07  0.
-6.288243502003286e-23 9.910307903221931e-07  0.
6.60924163204079e-23 9.910307903221931e-07  0.
-1.0728924228967384e-20 9.910307903221923e-07  0.
-1.8727683602585713e-18 9.910307903220307e-07  0.
-2.304716271351598e-16 9.91030790298951e-07  0.
-2.2082852043113243e-14 9.910307876531565e-07  0.
-1.5940823836514236e-12 9.910305527956786e-07  0.
-8.255970551465804e-11 9.910144894975318e-07  0.
-2.8664918404076714e-09 9.902797723399422e-07  0.
-5.749304392572461e-08 9.694964316221257e-07  0.
-5.327327618398767e-07 9.755077193895225e-07  0.
0.0 3.4499999999999975e-06  0.
3.087696298455988e-23 3.4499999999999975e-06  0.
0.0 3.4499999999999975e-06  0.
0.0 3.4499999999999975e-06  0.
0.0 3.4499999999999975e-06  0.
0.0 3.4499999999999975e-06  0.
-1.3613759979269115e-24 3.4499999999999975e-06  0.
1.3613759979269115e-24 3.4499999999999975e-06  0.
-1.8552211121222614e-22 3.4499999999999975e-06  0.
1.1224664521854586e-22 3.4499999999999975e-06  0.
-1.1224664521854586e-22 3.4499999999999975e-06  0.
1.128580702281411e-22 3.4499999999999975e-06  0.
-1.1556333929012676e-20 3.4499999999999975e-06  0.
-2.0339789711322395e-18 3.4499999999999975e-06  0.
-2.533037218319169e-16 3.4499999999999975e-06  0.
-2.470436665664891e-14 3.4499999999999975e-06  0.
-1.8290417929287285e-12 3.4499999999999975e-06  0.
-9.921620549071373e-11 3.4499999999999975e-06  0.
-3.7179593344391024e-09 3.4499999999999975e-06  0.
-8.932165225742586e-08 3.4499999999999975e-06  0.
-9.703625540050381e-07 3.4499999999999975e-06  0.
</DataArray>
<DataArray type="Float64" Name="sigma_xx" NumberOfComponents="1" format="ascii" >
0.0 
0.0 
0.0 
0.0 
0.0 
0.0 
0.0 
0.0 
0.0 
0.0 
0.0 
0.0 
0.0 
0.0 
0.0 
0.0 
0.0 
0.0 
0.0 
0.0 
0.0 
0.0 
0.0 
0.0 
0.0 
0.0 
0.0 
0.0 
0.0 
0.0 
0.0 
0.0 
0.0 
0.0 
0.0 
0.0 
0.0 
0.0 
0.0 
0.0 
0.0 
0.0 
0.0 
0.0 
0.0 
0.0 
0.0 
0.0 
0.0 
0.0 
0.0 
0.0 
0.0 
0.0 
0.0 
0.0 
0.0 
0.0 
0.0 
0.0 
0.0 
0.0 
0.0 
0.0 
0.0 
0.0 
0.0 
0.0 
0.0 
0.0 
0.0 
0.0 
0.0 
0.0 
0.0 
0.0 
0.0 
0.0 
0.0 
0.0 
0.0 
0.0 
0.0 
0.0 
0.0 
0.0 
0.0 
0.0 
0.0 
0.0 
0.0 
0.0 
0.0 
0.0 
0.0 
0.0 
0.0 
0.0 
0.0 
0.0 
0.0 
0.0 
0.0 
0.0 
0.0 
0.0 
0.0 
0.0 
0.0 
0.0 
0.0 
0.0 
0.0 
0.0 
0.0 
0.0 
0.0 
0.0 
0.0 
0.0 
0.0 
0.0 
0.0 
0.0 
0.0 
0.0 
0.0 
0.0 
0.0 
0.0 
0.0 
0.0 
0.0 
0.0 
0.0 
0.0 
0.0 
0.0 
0.0 
0.0 
0.0 
0.0 
0.0 
0.0 
0.0 
0.0 
0.0 
0.0 
0.0 
0.0 
0.0 
0.0 
0.0 
0.0 
0.0 
0.0 
0.0 
0.0 
0.0 
0.0 
0.0 
0.0 
0.0 
0.0 
0.0 
0.0 
0.0 
0.0 
0.0 
0.0 
0.0 
0.0 
0.0 
0.0 
0.0 
0.0 
0.0 
0.0 
0.0 
0.0 
0.0 
0.0 
0.0 
0.0 
0.0 
0.0 
0.0 
0.0 
0.0 
0.0 
0.0 
0.0 
0.0 
0.0 
0.0 
0.0 
0.0 
0.0 
0.0 
0.0 
0.0 
0.0 
0.0 
0.0 
0.0 
0.0 
0.0 
0.0 
0.0 
0.0 
0.0 
0.0 
0.0 
0.0 
0.0 
0.0 
0.0 
0.0 
0.0 
0.0 
0.0 
0.0 
0.0 
0.0 
0.0 
0.0 
0.0 
0.0 
0.0 
0.0 
0.0 
1.5698553568199707e-05 
1.5698553568199707e-05 
1.5698553568199707e-05 
1.5698553568199707e-05 
1.5698553568199707e-05 
1.5698553568199707e-05 
1.5698553568199707e-05 
1.5698553568199707e-05 
1.5698553568199707e-05 
1.5698553568199707e-05 
1.5698553568199707e-05 
1.5698553568199707e-05 
1.5698553568199707e-05 
1.5698553568199707e-05 
1.554867345987531e-05 
1.539324223642779e-05 
1.4860335184607714e-05 
1.3938850074168835e-05 
1.2390088954816744e-05 
9.031664305325645e-06 
6.827871601444709e-06 
0.0018466783657800072 
0.0018466783657800072 
0.0018466783657800072 
0.0018466783657800072 
0.0018466783657800072 
0.0018466783657800072 
0.0018466783657800072 
0.0018466783657800072 
0.0018466783657800072 
0.0018466783657800072 
0.0018466783657800072 
0.0018466783657800072 
0.0018466783657800072 
0.0018452017691572558 
0.0018386681066573367 
0.0018167245485756205 
0.001763655887998538 
0.0016554591031336936 
0.0014680257010013516 
0.001092076429287658 
0.0008315459432139956 
0.16525152357615974 
0.16525152357615974 
0.16525152357615974 
0.16525152357615974 
0.16525152357615974 
0.16525152357615974 
0.16525152357615974 
0.16525152357615974 
0.16525152357615974 
0.16525152357615974 
0.16525152357615974 
0.16525152357615974 
0.16525145141166314 
0.16524029922138078 
0.16489756782256387 
0.16359448795633108 
0.15961936217223632 
0.1509678826394633 
0.13480772054208495 
0.10082627510676896 
0.07735720952695144 
11.015530021474259 
11.015530021474259 
11.015530021474259 
11.015530021474259 
11.015530021474259 
11.015530021474259 
11.015530021474259 
11.015530021474259 
11.015530021474259 
11.015530021474259 
11.015530021474259 
11.015530021474259 
11.01552958848728 
11.015483475373951 
11.013162815043383 
10.955621765340592 
10.76538501676438 
10.2483090624883 
9.23292564070088 
6.943933400505028 
5.288219306898153 
520.9008268725055 
520.9008268725055 
520.9008268725055 
520.9008268725055 
520.9008268725055 
520.9008268725055 
520.9008268725055 
520.9008268725055 
520.9008268725055 
520.9008268725055 
520.9008268725055 
520.9008268725055 
520.9008255735446 
520.9006894990596 
520.891833916126 
520.5325944279691 
513.6834327845727 
494.43225016432257 
448.3564304047503 
339.41807163206926 
263.80299296135934 
16279.650485673252 
16279.650485673254 
16279.650485673254 
16279.650485673254 
16279.650485673254 
16279.650485673254 
16279.650485673254 
16279.650485673254 
16279.650485673254 
16279.650485673254 
16279.650485673254 
16279.650485673254 
16279.650482708956 
16279.650172174028 
16279.626409243514 
16278.385342799456 
16239.319364774734 
15701.196486986308 
14434.49580560418 
10934.976136511837 
8201.882637953735 
301511.5326507888 
301511.5326507888 
301511.5326507888 
301511.5326507888 
301511.5326507888 
301511.5326507888 
301511.5326507888 
301511.5326507888 
301511.5326507888 
301511.5326507888 
301511.5326507888 
301511.5326507888 
301511.5326455152 
301511.5320735283 
301511.48338229395 
301508.50715290883 
301388.2931534372 
298615.39046772954 
273244.0959797687 
208401.07926217146 
166273.74024143486 
2760808.770165556 
2760808.770165556 
2760808.770165556 
2760808.770165556 
2760808.770165556 
2760808.770165556 
2760808.770165556 
2760808.770165556 
2760808.770165556 
2760808.770165556 
2760808.770165556 
2760808.770165556 
2760808.7701579845 
2760808.769285349 
2760808.689695725 
2760803.3282373813 
2760551.99154814 
2753105.3509777626 
2635837.690854011 
1903132.86948239 
1280495.121619601 
9377110.909188509 
9377110.909188509 
9377110.909188509 
9377110.909188509 
9377110.909188509 
9377110.909188509 
9377110.909188509 
9377110.909188509 
9377110.909188509 
9377110.909188509 
9377110.909188509 
9377110.909188509 
9377110.90917914 
9377110.908060273 
9377110.801974656 
9377103.258991873 
9376719.566650497 
9363746.983553082 
9104240.456479345 
6705000.685633816 
4552671.113099325 
13804088.139810927 
13804088.139810927 
13804088.139810927 
13804088.139810927 
13804088.139810927 
13804088.139810927 
13804088.139810927 
13804088.139810927 
13804088.139810927 
13804088.139810927 
13804088.139810927 
13804088.139810927 
13804088.139800835 
13804088.138586197 
13804088.02199506 
13804079.582660839 
13803639.249618705 
13788080.319647051 
13455303.245312694 
9999332.986317096 
6861012.880778702 
</DataArray>
<DataArray type="Float64" Name="sigma_yy" NumberOfComponents="1" format="ascii" >
0.0 
0.0 
0.0 
0.0 
0.0 
0.0 
0.0 
0.0 
0.0 
0.0 
0.0 
0.0 
0.0 
0.0 
0.0 
0.0 
0.0 
0.0 
0.0 
0.0 
0.0 
0.0 
0.0 
0.0 
0.0 
0.0 
0.0 
0.0 
0.0 
0.0 
0.0 
0.0 
0.0 
0.0 
0.0 
0.0 
0.0 
0.0 
0.0 
0.0 
0.0 
0.0 
0.0 
0.0 
0.0 
0.0 
0.0 
0.0 
0.0 
0.0 
0.0 
0.0 
0.0 
0.0 
0.0 
0.0 
0.0 
0.0 
0.0 
0.0 
0.0 
0.0 
0.0 
0.0 
0.0 
0.0 
0.0 
0.0 
0.0 
0.0 
0.0 
0.0 
0.0 
0.0 
0.0 
0.0 
0.0 
0.0 
0.0 
0.0 
0.0 
0.0 
0.0 
0.0 
0.0 
0.0 
0.0 
0.0 
0.0 
0.0 
0.0 
0.0 
0.0 
0.0 
0.0 
0.0 
0.0 
0.0 
0.0 
0.0 
0.0 
0.0 
0.0 
0.0 
0.0 
0.0 
0.0 
0.0 
0.0 
0.0 
0.0 
0.0 
0.0 
0.0 
0.0 
0.0 
0.0 
0.0 
0.0 
0.0 
0.0 
0.0 
0.0 
0.0 
0.0 
0.0 
0.0 
0.0 
0.0 
0.0 
0.0 
0.0 
0.0 
0.0 
0.0 
0.0 
0.0 
0.0 
0.0 
0.0 
0.0 
0.0 
0.0 
0.0 
0.0 
0.0 
0.0 
0.0 
0.0 
0.0 
0.0 
0.0 
0.0 
0.0 
0.0 
0.0 
0.0 
0.0 
0.0 
0.0 
0.0 
0.0 
0.0 
0.0 
0.0 
0.0 
0.0 
0.0 
0.0 
0.0 
0.0 
0.0 
0.0 
0.0 
0.0 
0.0 
0.0 
0.0 
0.0 
0.0 
0.0 
0.0 
0.0 
0.0 
0.0 
0.0 
0.0 
0.0 
0.0 
0.0 
0.0 
0.0 
0.0 
0.0 
0.0 
0.0 
0.0 
0.0 
0.0 
0.0 
0.0 
0.0 
0.0 
0.0 
0.0 
0.0 
0.0 
0.0 
0.0 
0.0 
0.0 
0.0 
0.0 
0.0 
0.0 
0.0 
0.0 
0.0 
0.0 
0.0 
0.0 
0.0 
0.0 
0.0 
0.0 
0.0 
0.0 
0.0 
0.0 
0.0 
0.0 
2.9154456626656604e-05 
2.9154456626656604e-05 
2.9154456626656604e-05 
2.9154456626656604e-05 
2.9154456626656604e-05 
2.9154456626656604e-05 
2.9154456626656604e-05 
2.9154456626656604e-05 
2.9154456626656604e-05 
2.9154456626656604e-05 
2.9154456626656604e-05 
2.9154456626656604e-05 
2.9154456626656604e-05 
2.9154456626656604e-05 
2.8971269827593453e-05 
2.8682611841190912e-05 
2.78832512634608e-05 
2.636224571972434e-05 
2.358113704303832e-05 
1.9723112032465903e-05 
1.781907954523376e-05 
0.0034295455364485856 
0.0034295455364485856 
0.0034295455364485856 
0.0034295455364485856 
0.0034295455364485856 
0.0034295455364485856 
0.0034295455364485856 
0.0034295455364485856 
0.0034295455364485856 
0.0034295455364485856 
0.0034295455364485856 
0.0034295455364485856 
0.0034295455364485856 
0.0034281355532073117 
0.003419903249479716 
0.0033893332584966625 
0.003306954710069476 
0.0031270486200440924 
0.0028005597840774494 
0.0023814783478570685 
0.0021676105355084014 
0.30689568664143957 
0.30689568664143957 
0.30689568664143957 
0.30689568664143957 
0.30689568664143957 
0.30689568664143957 
0.30689568664143957 
0.30689568664143957 
0.30689568664143957 
0.30689568664143957 
0.30689568664143957 
0.30689568664143957 
0.3068956477836337 
0.3068862608479605 
0.3065400988599975 
0.3048484631396064 
0.2991358938331245 
0.2851548108750989 
0.25762147970453947 
0.22086961704026462 
0.20202775008471008 
20.457412897023627 
20.457412897023627 
20.457412897023627 