<?xml version="1.0"?>
<VTKFile type="UnstructuredGrid" version="0.1" byte_order="LittleEndian" compressor="vtkZLibDataCompressor">
<UnstructuredGrid>
<Piece NumberOfPoints="240" NumberOfCells="209">
<PointData>
<DataArray type="Float64" Name="displacement" NumberOfComponents="3" format="ascii" >
0.0 0.0  0.
0.0 0.0  0.
0.0 0.0  0.
0.0 0.0  0.
0.0 0.0  0.
0.0 0.0  0.
0.0 0.0  0.
0.0 0.0  0.
0.0 0.0  0.
0.0 0.0  0.
0.0 0.0  0.
0.0 0.0  0.
-0.17807713765642016 0.15089741413453647  0.
-0.06053479692301046 0.030252047441171687  0.
-0.02940792187183211 0.006634375665941086  0.
-0.006320694412295854 0.009635638912178226  0.
0.009497043275332795 0.022411680527225985  0.
0.02057098806637651 0.03978956464200307  0.
0.027268249251293075 0.058228929267964254  0.
0.029937264033130018 0.07507838899971675  0.
0.028967388784764576 0.08795357857367693  0.
0.02506526407322872 0.09477490636691498  0.
0.019637163985947784 0.094259634750654  0.
0.013871878817233747 0.08556630667450608  0.
-0.35375170978697373 0.2283544536862604  0.
-0.16575942997344367 0.12034264641879311  0.
-0.07417377492040272 0.06406759501953974  0.
-0.020927451470300458 0.055288399841715685  0.
0.016230720193314025 0.0685202914527292  0.
0.04173595468603496 0.09239450569594476  0.
0.05767214948764688 0.12030445894309147  0.
0.06486940110478674 0.14737583316639044  0.
0.06406157095630546 0.1695635082102274  0.
0.05639299882873211 0.18344133663423273  0.
0.044006971322214254 0.18657982253160837  0.
0.03046863558962205 0.1789126511869169  0.
-0.5164878058128566 0.3168646773816894  0.
-0.28694114806751203 0.2194152926999678  0.
-0.14270511481821663 0.15731312060957311  0.
-0.049814412688638766 0.13482580452773635  0.
0.013861475436387499 0.14109164683019765  0.
0.058162622860371084 0.16349237675427292  0.
0.08679740480730544 0.19348426149819317  0.
0.10156483519281306 0.22468777255895697  0.
0.10359840268927371 0.2518867707804131  0.
0.09428325273420339 0.27068140955622827  0.
0.07609423729199546 0.277737881839207  0.
0.05359999728328772 0.2718114241833517  0.
-0.6736850897712878 0.41910195779077236  0.
-0.41557261268687257 0.3321839660653281  0.
-0.2288228717696809 0.271309213262565  0.
-0.09659897490138944 0.24208166715751345  0.
-0.0021745531260487284 0.23989806100950856  0.
0.06490662173442054 0.2563569125024838  0.
0.11008959765827733 0.28317525980782077  0.
0.13608720485039058 0.31347988560155493  0.
0.14453226250519408 0.34145383343601565  0.
0.13695692621941813 0.3620814631868106  0.
0.1157468287626758 0.3712193009612337  0.
0.08530116001143158 0.3661799579878111  0.
-0.8291306168903845 0.5377285007887853  0.
-0.5491424571370724 0.46001111437075454  0.
-0.3284266259540132 0.4034315745495547  0.
-0.160485376291488 0.37165204048920647  0.
-0.03456498658979945 0.3630207957595341  0.
0.05812971051775313 0.3722901511351148  0.
0.12328565956244271 0.3930287754796868  0.
0.16424191257046752 0.41891177979226507  0.
0.18302329941910384 0.4441622896016425  0.
0.18124766169812553 0.4635543208497875  0.
0.16098329918416432 0.4724368887325183  0.
0.125810354758828 0.4669781657127819  0.
-0.9854367291860403 0.6742390586648052  0.
-0.6872029274522242 0.6047202577714869  0.
-0.4391134034468361 0.553397879155828  0.
-0.24007715858245884 0.5216844064571015  0.
-0.0840791056946434 0.5088019254069305  0.
0.03524913907880048 0.511563009339318  0.
0.12283420453768333 0.5253244092372098  0.
0.18200107582392497 0.5448997982814224  0.
0.2149218803912631 0.5650789277176577  0.
0.2231993186119888 0.5808434585189047  0.
0.20851360523910378 0.5874269645115258  0.
0.1734351446507337 0.5803836023414876  0.
-1.1443710662582236 0.8301160799965696  0.
-0.8301527732385655 0.7681250151564382  0.
-0.5596821751620897 0.7222418082867255  0.
-0.33415880018096633 0.6920548884566396  0.
-0.15069587367955606 0.6767811510815107  0.
-0.005201562207448412 0.674361638597988  0.
0.10603016740478269 0.6815489083826894  0.
0.18581829968381106 0.6943313094856378  0.
0.23616086593479355 0.7083324840706943  0.
0.25851466916739946 0.7190568500518306  0.
0.25417676645574816 0.7219888409981325  0.
0.2248051128265788 0.7125995457381017  0.
-1.3071617273262828 1.0069276181603977  0.
-0.978684626403769 0.9521171384148759  0.
-0.6897137545761612 0.9115934457976561  0.
-0.4419312889314966 0.8837177397876804  0.
-0.2341593760796503 0.8674345559945202  0.
-0.0640242772186422 0.8612564237388345  0.
0.0709263204677177 0.8629061909240029  0.
0.17274608896753774 0.8693763055692476  0.
0.24300743654105608 0.8771501940546532  0.
0.28288677038788834 0.8824089039108463  0.
0.29332615625499264 0.8811397584795082  0.
0.27528905206513593 0.8691363401678752  0.
-1.4746371303940842 1.2063684248207724  0.
-1.13353254145494 1.1586580906980182  0.
-0.8292611167933815 1.1233950247251991  0.
-0.5630179519995535 1.098248824625323  0.
-0.33427156228106536 1.0819269443694883  0.
-0.14170674488767526 1.0732494518947295  0.
0.01610000000113388 1.0706041747782036  0.
0.14038690478473698 1.0717729104174465  0.
0.23215872015961034 1.074004406361785  0.
0.29220882445706425 1.0741681801908345  0.
0.32114888142007086 1.0688652011924102  0.
0.31947104860254527 1.054443652657186  0.
-1.6472873523276899 1.430242384667267  0.
-1.2953408134178848 1.3897591394117068  0.
-0.9786212281048768 1.359739376851735  0.
-0.6973813837448982 1.337575221324479  0.
-0.45101910738062584 1.3218812290532198  0.
-0.23866667018925428 1.311713226692733  0.
-0.05958651494055308 1.305960097800116  0.
0.08674155968929873 1.3030261448266618  0.
0.20070991883457684 1.3007964740177778  0.
0.2826643872746326 1.2967552298592968  0.
0.33289648779999603 1.2881079595031024  0.
0.3515946235664216 1.2718266583582827  0.
-1.8252906754676235 1.680421773782099  0.
-1.464580850860083 1.6474387514968767  0.
-1.138157104412828 1.6227656255418308  0.
-0.8452000828747684 1.60379734711716  0.
-0.5845889480956814 1.5892010516925767  0.
-0.35539695746853706 1.5782943452209488  0.
-0.1571889923938865 1.57042170330741  0.
0.010021035583006089 1.5645269380554094  0.
0.14603733749048667 1.5590271197196872  0.
0.2507150946050183 1.5519140622657293  0.
0.3240132298199741 1.5409103838975484  0.
0.3659073265269722 1.5235599152016581  0.
-2.0085229614597293 1.958791303362887  0.
-1.6414851718158552 1.933665757501512  0.
-1.3081467917149068 1.9145775246482446  0.
-1.0067112768793443 1.8990672402062294  0.
-0.7352981470287708 1.8859409010535193  0.
-0.49251205486691196 1.8748266738188235  0.
-0.2778254370288647 1.8655564489112064  0.
-0.09153643222582007 1.8576233182851698  0.
0.06563480270619095 1.8499362073331678  0.
0.19300883010751002 1.8408982472078237  0.
0.29016120930054135 1.8286247830272064  0.
0.3568675297673941 1.8111043215725768  0.
-2.1965959340740313 2.2671885868609665  0.
-1.8259899713122079 2.250296198361135  0.
-1.488633469450662 2.237171152247023  0.
-1.1820224944054343 2.2254939957978586  0.
-0.9034335042221796 2.2142072229454435  0.
-0.6506824954139309 2.2032615306134433  0.
-0.42272781506514223 2.19303397353337  0.
-0.21981675217457608 2.1836605441151775  0.
-0.043071780084861705 2.1745997952409404  0.
0.10622408580427349 2.164625097316311  0.
0.22714595512712082 2.152113719103642  0.
0.3192014402194177 2.135336833708705  0.
-2.388962502075992 2.607375021852836  0.
-2.01770642818484 2.59905003784401  0.
-1.6792848700464558 2.592392892757881  0.
-1.3708927431886475 2.585073881308447  0.
-1.0890007768705823 2.576070499924399  0.
-0.8304134584324516 2.5656057425574765  0.
-0.5931419453868254 2.5546125837293743  0.
-0.3768905610556843 2.5440072232129287  0.
-0.18290919970225694 2.533984803255916  0.
-0.013144692449334463 2.523760218117231  0.
0.1307449181641773 2.511887798090165  0.
0.24781193367983909 2.4967193154048712  0.
-2.5852239290363497 2.9811785848530166  0.
-2.215976198580262 2.981643877241922  0.
-1.8793239770998846 2.982045680379196  0.
-1.5725518334099946 2.9796712223853605  0.
-1.2914162033106498 2.973463849370324  0.
-1.0316407648470984 2.9638068241338815  0.
-0.7899491426402586 2.9520946157517605  0.
-0.5648512604240583 2.9400641827879346  0.
-0.35706405994208523 2.928953442108286  0.
-0.16905918823300947 2.9187238815695156  0.
-0.003583481067579427 2.9080889742455005  0.
0.13754862334368867 2.8953573953006067  0.
-2.7856869420205626 3.391027435582671  0.
-2.420138235675184 3.4005496826654906  0.
-2.087704606287631 3.4083525128534395  0.
-1.7857648733645248 3.4112400561477942  0.
-1.5093802009575006 3.4080295215755583  0.
-1.2532637057856426 3.3994021929505283  0.
-1.0128750569160452 3.387030286868438  0.
-0.7850610125421451 3.3731791200105548  0.
-0.5688476587384026 3.3601906066317766  0.
-0.36617480084686926 3.3494598183633064  0.
-0.18112002158275703 3.3403898501162805  0.
-0.017263338144795925 3.330698952527209  0.
-2.992937183493808 3.8426689801172236  0.
-2.630293528260927 3.8610242428372845  0.
-2.3039369953261297 3.8761025560825635  0.
-2.0099195750403758 3.882635386333472  0.
-1.7416385954954736 3.8809659115798265  0.
-1.4932765537837018 3.872591659345007  0.
-1.2596494711758675 3.8594400815809786  0.
-1.0362995727490791 3.843737206617513  0.
-0.8199435139473116 3.8280839630432815  0.
-0.6095860670347903 3.815242485202195  0.
-0.40853353272386655 3.8066501761125258  0.
-0.22323043987644145 3.801426466927307  0.
-3.2105760276967623 4.349023152558293  0.
-2.848307570917417 4.380912817772735  0.
-2.532224824600811 4.396456328385371  0.
-2.248616472134103 4.399284268650076  0.
-1.9901387550219918 4.392976717373257  0.
-1.7512058182451384 4.380579842053286  0.
-1.5270935919009672 4.364474343255346  0.
-1.3133603266173481 4.346658602495448  0.
-1.1056385570884133 4.329110872767301  0.
-0.8998146035075412 4.314217265610502  0.
-0.6932080233007712 4.304917981328524  0.
-0.4906479610931586 4.299797593674686  0.
-3.443004326364749 4.9851643257201586  0.
-3.097665625229315 4.998330471802038  0.
-2.7925114081206197 4.989323613286738  0.
-2.5179258614482616 4.969324235910544  0.
-2.2668504973688828 4.943980066963537  0.
-2.0346794966170743 4.916556601372771  0.
-1.817677058047706 4.889287050479901  0.
-1.612409888966785 4.863927095062181  0.
-1.415328113143774 4.842102001996794  0.
-1.2223337367418727 4.825769269547848  0.
-1.0280660021359778 4.81851688716891  0.
-0.8236453366100976 4.831852495261135  0.
</DataArray>
<DataArray type="Float64" Name="Nodal_sigma_xx" NumberOfComponents="1" format="ascii" >
-10.756183210742552 
-7.502626325901666 
-2.9936665454138542 
-0.8003523539740038 
0.7841397996373235 
1.8549655053217644 
2.502361954471069 
2.770303293758851 
2.7123507100750475 
2.415467545109622 
1.998138449763251 
1.774950197693986 
-9.954903414814812 
-7.429749392704796 
-3.432741562954829 
-0.9910032615336437 
0.6619955468989083 
1.7950979501352418 
2.492542373463632 
2.8062479963023033 
2.785226555599145 
2.504427023544806 
2.081245914827031 
1.8515936093651424 
-8.752196344906613 
-7.164326507929198 
-4.02623362197899 
-1.420508264749227 
0.38154402847363406 
1.6333038743943715 
2.4375114497688006 
2.850817416404575 
2.916276782677769 
2.688655741874935 
2.2657540291169886 
2.021624471218881 
-8.063125486198707 
-6.80645908467333 
-4.227317562974063 
-1.8222938859751743 
0.054085554423371984 
1.4062656375091527 
2.3182734997853305 
2.8413501980628633 
3.012585091667673 
2.871173844352782 
2.4801409672883716 
2.2323361956300736 
-7.576132410149729 
-6.5005663762338965 
-4.266729969107602 
-2.087926190485388 
-0.25690320366494934 
1.1513162715578482 
2.1532226023639134 
2.7830028335244124 
3.06761936823568 
3.0320212860940856 
2.710582989611807 
2.4837555158138445 
-7.23459954410915 
-6.246301894533723 
-4.226989950523945 
-2.2484388458980913 
-0.5076143885637359 
0.9039320136677143 
1.9663796586036084 
2.6880609149323784 
3.082925589372739 
3.1633558636242887 
2.9428897893374812 
2.7593657487580114 
-6.987307966232313 
-6.040786877483999 
-4.152433074486071 
-2.3336447005211687 
-0.694863380632184 
0.6877936877239401 
1.779960017897328 
2.5725141515751426 
3.0663207322172816 
3.2635222929724756 
3.164205047736698 
3.0402736107010147 
-6.798146920064784 
-5.871944406643863 
-4.06583222645102 
-2.369209578567211 
-0.8271169787464004 
0.510481620655432 
1.6093223584661596 
2.4513522357849706 
3.0283934075262824 
3.335304811490101 
3.3648234669454706 
3.3090637699773398 
-6.6374573961445105 
-5.7243794300794 
-3.976143548170368 
-2.3738659264037247 
-0.9170662673395037 
0.3702953385666099 
1.4612574327568264 
2.3352501032707513 
2.97911411631279 
3.3836465434208893 
3.538753755554362 
3.552480324533454 
-6.479054308295469 
-5.580647132865969 
-3.8834490826070374 
-2.359329340610206 
-0.9773848168718289 
0.2601227881657262 
1.3355621350641314 
2.229154913808226 
2.925456377818467 
3.413502881897136 
3.683266898630223 
3.7622404949826143 
-6.298308851522938 
-5.421791874143249 
-3.781550993771821 
-2.3308937974161976 
-1.0186063495833404 
0.17018962568230211 
1.2266044902523616 
2.1322737404125265 
2.8701193014201465 
3.428200861410904 
3.79780535753524 
3.9344776482896657 
-6.071376802322039 
-5.2274478653374015 
-3.659073049149885 
-2.2877034771617373 
-1.0478175204522913 
0.08993701590279995 
1.124612066239145 
2.038327697238712 
2.8109099781621074 
3.428268568239222 
3.882623932899099 
4.068370135311122 
-5.77549283389364 
-4.976018555812852 
-3.499446444188303 
-2.2221452030872317 
-1.0671657637856573 
0.009655590695072463 
1.0165546059858546 
1.9354975410028081 
2.7400497103679955 
3.4103554485028775 
3.937278278544139 
4.164358297353068 
-5.3906218960204 
-4.645314634697926 
-3.2801262960745783 
-2.118059940647286 
-1.0711844787714941 
-0.0770630715175285 
0.8870418753594846 
1.8055575722417254 
2.6425202831754655 
3.3655096066249204 
3.958731169683199 
4.222084146715943 
-4.902403772838024 
-4.213983981577902 
-2.9716215142509257 
-1.9480634780205461 
-1.0422759441304335 
-0.16817558827367513 
0.7209847412241042 
1.62241917981043 
2.4920287112817436 
3.2753282360945 
3.938368018757703 
4.237515516860745 
-4.305852208192652 
-3.662637081380462 
-2.5370338124055594 
-1.6724233898680485 
-0.9455686842441191 
-0.24356890677719312 
0.5130225585168664 
1.353403848782258 
2.2437921550576183 
3.1023790442201973 
3.8551115307849972 
4.198488257273452 
-3.595161752355015 
-2.9707779772381073 
-1.9356705995769856 
-1.244876074262171 
-0.732309295515468 
-0.2552479930551639 
0.2911192490635824 
0.9792754170190157 
1.8290776485436449 
2.7694339696509322 
3.65810958392363 
4.06987673629278 
-2.730420338403176 
-2.079535164839079 
-1.123585659148947 
-0.6526437422400161 
-0.3719806628704653 
-0.13996474537198206 
0.1415156498704732 
0.5622548434026393 
1.208989454119953 
2.1279765506910473 
3.20821775558752 
3.7597172534286742 
-1.1875631544343563 
-0.7732757602981633 
-0.21273325833228526 
-0.010972708924928479 
0.06760460027005452 
0.10947118801865172 
0.16660595766376662 
0.29500038324774785 
0.5778361382510692 
1.147624885260667 
2.1736381501406212 
2.8226440469441467 
-0.12403033885445286 
0.025632307857896858 
0.23350581143917382 
0.2960658832876586 
0.28922950621773724 
0.2616888912029518 
0.23345869768648245 
0.23098438518151648 
0.3076379436923872 
0.589249686305154 
1.4530260196388436 
2.1024433108244405 
</DataArray>
<DataArray type="Float64" Name="Nodal_sigma_yy" NumberOfComponents="1" format="ascii" >
-3.8695925398186475 
-2.9925497612562526 
-1.6198721888338565 
-0.6392761043587587 
0.20713076326987612 
0.8239685335726019 
1.229503470274425 
1.4362667701354228 
1.4755409333772405 
1.3991096491714936 
1.2769753764944785 
1.2139259948166656 
-2.2905036301495456 
-2.105088373335972 
-1.5462995539776594 
-0.7804780444022367 
-0.05638449344613651 
0.5285055654697068 
0.9533071156517363 
1.220444084163392 
1.3493494471623841 
1.375175833141523 
1.3508380479390538 
1.333999366436386 
-0.6060290983890154 
-0.9461353148250546 
-1.2063769737840708 
-0.9032744150698215 
-0.42541731635461744 
0.06463058481986936 
0.49756917134212536 
0.8495514603302856 
1.1177415887960838 
1.3094724986291397 
1.438397673949954 
1.4893095617410979 
-0.4397261955059104 
-0.5659832964850371 
-0.7771762462293026 
-0.7769487597155156 
-0.5247241307997043 
-0.16117603251728754 
0.23139565720148275 
0.6089318243675098 
0.9504772865203246 
1.2447064709366762 
1.4757892464299611 
1.5727370175669209 
-0.35701651052953953 
-0.4045988775384808 
-0.5139370341058769 
-0.562373059583095 
-0.4488119409631932 
-0.19525256550757725 
0.13785100458715294 
0.5058675792069391 
0.87916827157005 
1.236268253683167 
1.552921190359334 
1.6975438118434876 
-0.3242145085296591 
-0.3234451504284569 
-0.34731237761613176 
-0.363360707182686 
-0.28796952499131945 
-0.09952954804001915 
0.18277929509154678 
0.5283339188173836 
0.9101981407053235 
1.3056307490610743 
1.6913095509080325 
1.8785371352106526 
-0.30639861747674024 
-0.27659732760538636 
-0.23302562764805174 
-0.19228819650810813 
-0.10192983493370593 
0.06862312421412936 
0.323143139592768 
0.649638643868172 
1.0306590877831536 
1.4484969770844882 
1.8852929969453587 
2.1061344638957147 
-0.2935198671815631 
-0.24316850373692428 
-0.14574607219120211 
-0.044906407992677935 
0.08458747582365087 
0.26802376266741323 
0.5184041402679462 
0.8366169662807901 
1.2158847107175186 
1.6460713511876142 
2.116249754544459 
2.3599658143307516 
-0.280530578689695 
-0.21327854647566022 
-0.07075786466441644 
0.08595783816286606 
0.26247523086567554 
0.474806006270544 
0.7372990529204833 
1.0578302846708834 
1.4377056671053974 
1.8738789142475363 
2.3616774652172037 
2.6178795304466527 
-0.26502259427209196 
-0.18205558543074754 
0.000250043697230036 
0.20667772814592994 
0.4298011382503162 
0.6766195031550137 
0.9592721585045689 
1.2885585401162245 
1.6709069932334657 
2.108455181718047 
2.601035764146972 
2.8609988659840786 
-0.24575798063765755 
-0.14725567347970014 
0.07162310657654357 
0.3218838928958272 
0.5876810014742273 
0.8684014687756304 
1.1727778198589465 
1.5123946036563556 
1.8967519352392948 
2.331401472066662 
2.8188850092673183 
3.0760282363654534 
-0.22224553418006696 
-0.10827625307233471 
0.14490457725265377 
0.43421004470247476 
0.7381195518616455 
1.04944987531093 
1.3731459932574868 
1.7207160404790516 
2.1039248653384894 
2.530886637013158 
3.005740588691711 
3.2554529297573467 
-0.1946617971643031 
-0.06586740295110838 
0.21928474819452579 
0.5440943202521844 
0.882628662483637 
1.2212656647120759 
1.560509188110892 
1.911314322836736 
2.2878798943949468 
2.701307726761409 
3.1573132797933603 
3.3963404855678276 
-0.16399194946270806 
-0.02199674473348704 
0.29204412295151827 
0.6499245170874184 
1.0214160550749318 
1.385784653713868 
1.737772851523282 
2.0866622258564838 
2.4495091762362837 
2.841942368284556 
3.27280977833403 
3.4984779783597055 
-0.13142338571708745 
0.021031521420854713 
0.3606321957761427 
0.7505398716500453 
1.1544936877282166 
1.5445939424517905 
1.9085588232650528 
2.2517969023719107 
2.5932159646846307 
2.9553129317524256 
3.352787686724168 
3.56140299134528 
-0.09950962303394147 
0.06444037819724888 
0.4317574488074874 
0.8554942517247955 
1.2907725078096686 
1.7030051648835545 
2.0761849195681346 
2.4111085038837237 
2.724485203652927 
3.0436047784982687 
3.396318892892971 
3.584222168053252 
-0.049587277756617594 
0.13006298115251402 
0.5480183070936784 
1.0245141133844613 
1.481524650794365 
1.893311920025615 
2.2526634498236784 
2.563044526800071 
2.8398866084727303 
3.108413409227954 
3.392588638659321 
3.5410821307496976 
-0.02500465673652623 
0.29867101230873394 
0.9226156782421115 
1.469042910656507 
1.9083723692191321 
2.2514724746518486 
2.517928760310783 
2.7269259563972708 
2.9020667054996157 
3.085240158940345 
3.3299803607727307 
3.47421806544281 
0.8968567552031915 
1.398786962327985 
2.2169242430698315 
2.724020720347484 
3.0167394485702914 
3.1567864260441683 
3.186542301249985 
3.1340412622411664 
3.0191470301040404 
2.869754221119121 
2.7593641988388438 
2.7275120147093275 
1.8287875959704494 
2.3735519162296277 
3.214822770309345 
3.6475630006569095 
3.8179160449953002 
3.8139908385950365 
3.6829495890226585 
3.450629821376804 
3.126247971545232 
2.704295400752774 
2.2352876866843596 
2.003173765861937 
</DataArray>
<DataArray type="Float64" Name="Nodal_sigma_xy" NumberOfComponents="1" format="ascii" >
1.2226809865217039 
0.6910635685531303 
0.0980716552902636 
0.13915314486506608 
0.39441042703857454 
0.7163129137860111 
1.046418801142223 
1.3410148281119418 
1.5619152246152752 
1.6731687704204796 
1.645737085613332 
1.5943609224477824 
0.44179694805677777 
0.4262868843693657 
0.3539527359941155 
0.3656394307704166 
0.5557806060795365 
0.8190737057692465 
1.1000639552174014 
1.3583871623232364 
1.5591404861262013 
1.669626198166171 
1.6665202535296164 
1.634686259153648 
-0.595019497489107 
-0.04887612191370408 
0.5791057326695392 
0.7121126325052229 
0.845258614293948 
1.02758435993435 
1.2324096789550572 
1.4316555054181332 
1.5979802555639662 
1.7039772179675698 
1.7279074542112307 
1.7173967860752317 
-0.9671511738440727 
-0.3954464563437011 
0.44892205585165124 
0.839117945136243 
1.0444167207953468 
1.2193698213488986 
1.3939650455077648 
1.5624255885998344 
1.7083138082519462 
1.8090804966626957 
1.8370508419712466 
1.829090980103898 
-1.1386621528715541 
-0.6193671609671241 
0.24941027557308632 
0.8014254614912721 
1.1318519584910427 
1.3598827257634005 
1.5485059437497193 
1.7159410867996057 
1.8594000802544264 
1.9635030278316856 
2.0006779499664633 
1.9982599813602424 
-1.2191322356528407 
-0.7613519240285838 
0.06783657307617874 
0.6976264483550644 
1.1325967334777691 
1.4389885987160616 
1.6735341124649787 
1.8666826923539546 
2.027351667742242 
2.1489957517076217 
2.2101164351744265 
2.221855674010112 
-1.2525079611332606 
-0.8455057883587385 
-0.0710948178837075 
0.584790443123618 
1.0890683861574477 
1.468666502606248 
1.7624225409419787 
1.9994127298055089 
2.194325402399997 
2.3482365678966546 
2.4482891901039734 
2.4823125321595363 
-1.2575247471681994 
-0.8863050440276259 
-0.16136697610604642 
0.4926746520862771 
1.034922414538891 
1.47020420324897 
1.8208146823995102 
2.108741729327271 
2.348622559375136 
2.545918560589428 
2.6956547560839357 
2.757301922966013 
-1.2416324223939683 
-0.8920072523722855 
-0.2037138393592378 
0.43595398002205854 
0.9928766183748217 
1.4636673434070762 
1.8599873876850945 
2.19636456494499 
2.484295538349636 
2.730243754303512 
2.9344314445459316 
3.0256770961878203 
-1.2069698827490676 
-0.8669932933795567 
-0.20081932053302048 
0.4210636363615654 
0.977001350224176 
1.4646644832840519 
1.891662135112228 
2.2674778158408584 
2.5997342261962384 
2.893488553617756 
3.1510230399493646 
3.270830587699555 
-1.1532390259087646 
-0.8133567640572843 
-0.1555104736882185 
0.45030783758135184 
0.9955631513283731 
1.4842812314962057 
1.9257507468805248 
2.328056111704321 
2.695863757585207 
3.031545028111911 
3.336721741373669 
3.481871931377337 
-1.0793493597596924 
-0.7321237023123381 
-0.07022445815920142 
0.5243249808291341 
1.0536924923376123 
1.5304579399160554 
1.9700983505640484 
2.3835280461198995 
2.774627790153267 
3.1428391929268176 
3.4870741184068286 
3.6531343118862805 
-0.9846833834090889 
-0.6243893585292174 
0.052826821333031695 
0.6434862502541571 
1.1556781162267211 
1.610122243755601 
2.0316487735457374 
2.4387237026676454 
2.8380438328667186 
3.227014798480853 
3.600397442383858 
3.7825913160449662 
-0.8703971720810582 
-0.4925077803375363 
0.21106380637252642 
0.8083938494773542 
1.3066112081911547 
1.7316309825890586 
2.1188414857482023 
2.4992129940634595 
2.8880271327355387 
3.283606523569528 
3.6757944953475157 
3.8696059459850893 
-0.7407035069698249 
-0.3409539455469169 
0.4011277293118141 
1.0194973796099627 
1.5125058999780465 
1.9063897928937101 
2.244845295975923 
2.5745474756173086 
2.9277651550304418 
3.311022663433496 
3.7106669794422324 
3.9121118804919695 
-0.602480118470863 
-0.17464262528783916 
0.6208260719281994 
1.2764281639917106 
1.7770644182982656 
2.145850092590007 
2.4286705764462697 
2.6835551284224843 
2.966250703028238 
3.307260848100412 
3.6979886843629197 
3.9022175740233718 
-0.456922152933858 
0.013029536150706261 
0.8820996024126035 
1.580939422404961 
2.091958123763585 
2.444800687294003 
2.6811507712805707 
2.8540675600732195 
3.0301544423753457 
3.276014369532934 
3.6231667063781825 
3.822433988575069 
-0.25168185128825454 
0.30043600836089634 
1.255544614664847 
1.9407307109376257 
2.41748941426687 
2.7407652410658683 
2.947787319756896 
3.0708149565960134 
3.1536034440776275 
3.2648492238513027 
3.4812198087328916 
3.624415070086597 
0.55258365269213 
1.0599906552105278 
1.8588846203448512 
2.336102567183603 
2.6495722329904847 
2.8680526239487953 
3.0213581822985196 
3.1225401723589155 
3.183024142963859 
3.233970956077889 
3.3676676858004835 
3.472283431929064 
1.2268872716016523 
1.6334870337588947 
2.232872750539288 
2.5363854573266984 
2.723925913828272 
2.861197798928355 
2.9717021173338742 
3.0619804195972127 
3.1322768040215987 
3.192894839310025 
3.3407054069078894 
3.4579621590211267 
</DataArray>
</PointData>
<CellData>
</CellData>
<Points>
<DataArray type="Float64" Name="Points" NumberOfComponents="3" format="ascii">
0.0 50.0 0.0
0.0 45.4545441 0.0
0.0 40.9090919 0.0
0.0 36.363636 0.0
0.0 31.818182 0.0
0.0 27.272728 0.0
0.0 22.727272 0.0
0.0 18.181818 0.0
0.0 13.636364 0.0
0.0 9.090909 0.0
0.0 4.5454545 0.0
0.0 0.0 0.0
2.52631569 50.5263176 0.0
2.52631569 46.1435394 0.0
2.52631569 41.7607651 0.0
2.52631569 37.3779907 0.0
2.52631569 32.9952164 0.0
2.52631569 28.6124401 0.0
2.52631569 24.2296658 0.0
2.52631569 19.8468895 0.0
2.52631569 15.4641151 0.0
2.52631569 11.0813398 0.0
2.52631569 6.69856453 0.0
2.52631569 2.31578946 0.0
5.05263138 51.0526314 0.0
5.05263138 46.8325348 0.0
5.05263138 42.612442 0.0
5.05263138 38.3923454 0.0
5.05263138 34.1722488 0.0
5.05263138 29.9521523 0.0
5.05263138 25.7320576 0.0
5.05263138 21.511961 0.0
5.05263138 17.2918663 0.0
5.05263138 13.0717707 0.0
5.05263138 8.85167503 0.0
5.05263138 4.63157892 0.0
7.57894754 51.578949 0.0
7.57894754 47.5215302 0.0
7.57894754 43.4641151 0.0
7.57894754 39.4067001 0.0
7.57894754 35.3492813 0.0
7.57894754 31.2918663 0.0
7.57894754 27.2344494 0.0
7.57894754 23.1770344 0.0
7.57894754 19.1196175 0.0
7.57894754 15.0622005 0.0
7.57894754 11.0047846 0.0
7.57894754 6.94736862 0.0
10.1052628 52.1052628 0.0
10.1052628 48.2105255 0.0
10.1052628 44.3157883 0.0
10.1052628 40.421051 0.0
10.1052628 36.5263176 0.0
10.1052628 32.6315804 0.0
10.1052628 28.7368412 0.0
10.1052628 24.8421059 0.0
10.1052628 20.9473686 0.0
10.1052628 17.0526314 0.0
10.1052628 13.1578951 0.0
10.1052628 9.26315784 0.0
12.6315794 52.6315804 0.0
12.6315794 48.8995209 0.0
12.6315794 45.1674652 0.0
12.6315794 41.4354057 0.0
12.6315794 37.7033501 0.0
12.6315794 33.9712906 0.0
12.6315794 30.2392349 0.0
12.6315794 26.5071774 0.0
12.6315794 22.7751198 0.0
12.6315794 19.0430622 0.0
12.6315794 15.3110046 0.0
12.6315794 11.5789471 0.0
15.1578951 53.1578941 0.0
15.1578951 49.5885162 0.0
15.1578951 46.0191383 0.0
15.1578951 42.4497604 0.0
15.1578951 38.8803825 0.0
15.1578951 35.3110046 0.0
15.1578951 31.7416267 0.0
15.1578951 28.1722488 0.0
15.1578951 24.6028709 0.0
15.1578951 21.033493 0.0
15.1578951 17.4641151 0.0
15.1578951 13.8947372 0.0
17.6842098 53.6842117 0.0
17.6842098 50.2775116 0.0
17.6842098 46.8708153 0.0
17.6842098 43.4641151 0.0
17.6842098 40.057415 0.0
17.6842098 36.6507187 0.0
17.6842098 33.2440186 0.0
17.6842098 29.8373203 0.0
17.6842098 26.4306221 0.0
17.6842098 23.0239239 0.0
17.6842098 19.6172256 0.0
17.6842098 16.2105255 0.0
20.2105255 54.2105255 0.0
20.2105255 50.966507 0.0
20.2105255 47.7224884 0.0
20.2105255 44.4784698 0.0
20.2105255 41.2344513 0.0
20.2105255 37.9904289 0.0
20.2105255 34.7464104 0.0
20.2105255 31.5023918 0.0
20.2105255 28.2583733 0.0
20.2105255 25.0143547 0.0
20.2105255 21.7703342 0.0
20.2105255 18.5263157 0.0
22.7368412 54.7368431 0.0
22.7368412 51.6555023 0.0
22.7368412 48.5741615 0.0
22.7368412 45.4928246 0.0
22.7368412 42.4114838 0.0
22.7368412 39.330143 0.0
22.7368412 36.2488022 0.0
22.7368412 33.1674652 0.0
22.7368412 30.0861244 0.0
22.7368412 27.0047855 0.0
22.7368412 23.9234447 0.0
22.7368412 20.8421059 0.0
25.2631588 55.2631569 0.0
25.2631588 52.3444977 0.0
25.2631588 49.4258385 0.0
25.2631588 46.5071754 0.0
25.2631588 43.5885162 0.0
25.2631588 40.669857 0.0
25.2631588 37.7511978 0.0
25.2631588 34.8325348 0.0
25.2631588 31.9138756 0.0
25.2631588 28.9952145 0.0
25.2631588 26.0765553 0.0
25.2631588 23.1578941 0.0
27.7894745 55.7894745 0.0
27.7894745 53.033493 0.0
27.7894745 50.2775116 0.0
27.7894745 47.5215302 0.0
27.7894745 44.7655487 0.0
27.7894745 42.0095711 0.0
27.7894745 39.2535896 0.0
27.7894745 36.4976082 0.0
27.7894745 33.7416267 0.0
27.7894745 30.9856453 0.0
27.7894745 28.2296658 0.0
27.7894745 25.4736843 0.0
30.3157902 56.3157883 0.0
30.3157902 53.7224884 0.0
30.3157902 51.1291847 0.0
30.3157902 48.5358849 0.0
30.3157902 45.942585 0.0
30.3157902 43.3492813 0.0
30.3157902 40.7559814 0.0
30.3157902 38.1626778 0.0
30.3157902 35.5693779 0.0
30.3157902 32.976078 0.0
30.3157902 30.3827744 0.0
30.3157902 27.7894745 0.0
32.8421059 56.8421059 0.0
32.8421059 54.4114838 0.0
32.8421059 51.9808617 0.0
32.8421059 49.5502396 0.0
32.8421059 47.1196175 0.0
32.8421059 44.6889954 0.0
32.8421059 42.2583733 0.0
32.8421059 39.8277512 0.0
32.8421059 37.3971291 0.0
32.8421059 34.966507 0.0
32.8421059 32.5358849 0.0
32.8421059 30.1052628 0.0
35.3684196 57.3684196 0.0
35.3684196 55.1004791 0.0
35.3684196 52.8325348 0.0
35.3684196 50.5645943 0.0
35.3684196 48.2966499 0.0
35.3684196 46.0287094 0.0
35.3684196 43.7607651 0.0
35.3684196 41.4928246 0.0
35.3684196 39.2248802 0.0
35.3684196 36.9569397 0.0
35.3684196 34.6889954 0.0
35.3684196 32.421051 0.0
37.8947372 57.8947372 0.0
37.8947372 55.7894745 0.0
37.8947372 53.6842117 0.0
37.8947372 51.578949 0.0
37.8947372 49.4736824 0.0
37.8947372 47.3684196 0.0
37.8947372 45.2631569 0.0
37.8947372 43.1578941 0.0
37.8947372 41.0526314 0.0
37.8947372 38.9473686 0.0
37.8947372 36.8421059 0.0
37.8947372 34.7368431 0.0