<?xml version="1.0"?>
<VTKFile type="UnstructuredGrid" version="0.1" byte_order="LittleEndian" compressor="vtkZLibDataCompressor">
<UnstructuredGrid>
<Piece NumberOfPoints="240" NumberOfCells="209">
<PointData>
<DataArray type="Float64" Name="displacement" NumberOfComponents="3" format="ascii" >
0.0 0.0  0.
0.0 0.0  0.
0.0 0.0  0.
0.0 0.0  0.
0.0 0.0  0.
0.0 0.0  0.
0.0 0.0  0.
0.0 0.0  0.
0.0 0.0  0.
0.0 0.0  0.
0.0 0.0  0.
0.0 0.0  0.
-0.3357398496815468 0.27450275711680927  0.
-0.10814728003746579 0.05299549360633839  0.
-0.051236200445718603 0.016320753133898226  0.
-0.008808131861008796 0.02736419288344216  0.
0.01990771469829131 0.05423054515650327  0.
0.03989494528679906 0.08782483849399872  0.
0.051867428410442125 0.12200726398608099  0.
0.05651816294638737 0.15233431177652165  0.
0.05458337275168275 0.17482028433880645  0.
0.047344306726873876 0.1859522165156477  0.
0.03729799898364212 0.18349080709469395  0.
0.02608785367406254 0.1651865267956773  0.
-0.6669125595837855 0.4201003553622976  0.
-0.30170064236561406 0.22538606301572475  0.
-0.12951922770028787 0.12950349120610916  0.
-0.03187628150008818 0.12167417657459087  0.
0.03546971659883101 0.15187423114816861  0.
0.08121005075987692 0.19894247924157618  0.
0.10950874872810828 0.2511523592301338  0.
0.12201583530620509 0.3001287962988359  0.
0.12012081649956145 0.33905265678764707  0.
0.10587205474740044 0.3621503063778177  0.
0.08299775052962417 0.3652401435468232  0.
0.05743015524879199 0.34799465514430933  0.
-0.9759326054583952 0.5886347120641207  0.
-0.5274538173811469 0.41790021236010705  0.
-0.2537720566887536 0.3128332549703523  0.
-0.08166519731293603 0.2806980872684484  0.
0.03423069362272379 0.2994085541361127  0.
0.1138616113460459 0.3448435992024118  0.
0.16476919243274227 0.40144921737814176  0.
0.19060968961791816 0.45806276158014586  0.
0.19358421661381636 0.5057869089627155  0.
0.17618676348599094 0.5371908391059607  0.
0.1427141433064127 0.5466282616890075  0.
0.10096670348107929 0.5319671634704886  0.
-1.2749358938603306 0.7835780485269463  0.
-0.7695810082974518 0.637112632043515  0.
-0.4132845333034922 0.5367276522929935  0.
-0.1664439075608547 0.49327132937747414  0.
0.006728925122959169 0.49718514225199273  0.
0.1280584946128742 0.5323359699455082  0.
0.20888567071324732 0.5834911165855385  0.
0.25485911594979715 0.6384879477529732  0.
0.2692700588003562 0.6873216891305877  0.
0.25495551727122856 0.721498367726726  0.
0.21607532666384868 0.7340317754232363  0.
0.160184209330057 0.7204066068113455  0.
-1.570776704164233 1.0091234691395592  0.
-1.0228934111369599 0.884425826045967  0.
-0.600608594877959 0.7951495228288518  0.
-0.28546526833730235 0.7486805190013841  0.
-0.0529937716845625 0.7416601578519703  0.
0.11588560685045694 0.7641503302106236  0.
0.23336685175221206 0.8044236330098261  0.
0.3065925502691228 0.8513027933279551  0.
0.3397992850295533 0.8948424515722219  0.
0.336120777619718 0.9261952036543444  0.
0.29922092360784136 0.9375420132570911  0.
0.23524374927318958 0.922452779602315  0.
-1.86848661319522 1.2674573065112142  0.
-1.2862357732225176 1.16261496622944  0.
-0.8111717768989636 1.086712922951368  0.
-0.4364752729106961 1.0427171015580454  0.
-0.1470184953412608 1.0292919667928087  0.
0.07178301861033315 1.040653168171331  0.
0.23091899747200295 1.0685382292343948  0.
0.3377519103289032 1.1039246473880222  0.
0.3970109850222306 1.13792623978347  0.
0.41197273923229955 1.1621033697226861  0.
0.38571866117261083 1.1684901754399724  0.
0.32265913722169676 1.1496549733734343  0.
-2.1717078478711236 1.560889962014605  0.
-1.5602718788143144 1.4746385487179825  0.
-1.0426461199000114 1.4127206102446896  0.
-0.6173678302605754 1.3744278342612137  0.
-0.275740215040708 1.3585881614324073  0.
-0.007598259962979764 1.361735820498097  0.
0.19581668687280884 1.3783358567685722  0.
0.34106665232355327 1.401606722447864  0.
0.43272924180367955 1.424235391950314  0.
0.47397725363704973 1.4387729357970307  0.
0.4673357345378001 1.4377580721296885  0.
0.4156801708774961 1.4136839443073392  0.
-2.48316409464072 1.8919657826713563  0.
-1.846446938386307 1.8236720983657095  0.
-1.294281640802595 1.7757139136559865  0.
-0.8267849118203974 1.7449404175437377  0.
-0.4390017487282615 1.7297376761563876  0.
-0.12425408696199808 1.7278208322656852  0.
0.12380171619944629 1.735536661970663  0.
0.31035047365749907 1.748004438620635  0.
0.4392925567759395 1.7595232285791038  0.
0.5134194781087769 1.7639121350266322  0.
0.5347442684896594 1.7546605544115015  0.
0.5050115976790659 1.724892434819858  0.
-2.804901127051788 2.2635014671228473  0.
-2.146475649088298 2.2130266085809236  0.
-1.5663769263347667 2.178863071243929  0.
-1.0642228606191628 2.1565869094197936  0.
-0.6367321034768492 2.1441944954196637  0.
-0.2795280837602428 2.1400264601848376  0.
0.011654882962667819 2.14168264062125  0.
0.24045908567505153 2.1457366316088162  0.
0.4097936773629657 2.147891960950173  0.
0.5218469644892854 2.1432364317097607  0.
0.5781450550489997 2.1263947585165157  0.
0.5796992928798682 2.0915184182632203  0.
-3.1384037054673946 2.678535802887406  0.
-2.4620611255294285 2.6460840161040746  0.
-1.8598603521941188 2.625614977420088  0.
-1.329931474880686 2.6123637593206492  0.
-0.8692514999754665 2.604249749011447  0.
-0.4746202192556223 2.6000879868757054  0.
-0.14326851746415617 2.598381779339544  0.
0.12702911977363535 2.5967955761077346  0.
0.33807135803488025 2.5921508403615388  0.
0.4913017582926386 2.5806343009302166  0.
0.5877599770635363 2.5579670181124663  0.
0.628011995702276 2.5194342378346524  0.
-3.4846533650325022 3.140252480695978  0.
-2.7947115007339813 3.126214457357142  0.
-2.175946922086151 3.119476385723786  0.
-1.6247093441171432 3.1155728147689428  0.
-1.1373481868764566 3.112688197095792  0.
-0.710904526877396 3.1101853800556114  0.
-0.3434431592100874 3.1073707712009844  0.
-0.033866264816694906 3.102798222825687  0.
0.21853135068923676 3.0941576359589766  0.
0.41436171352081386 3.0784936499436046  0.
0.5541502132119874 3.05243711181521  0.
0.638170181296076 3.01229768325661  0.
-3.8441485800637416 3.651887056042933  0.
-3.1455931990118655 3.6566864544870903  0.
-2.515838326674173 3.6638666263573807  0.
-1.9496196388510225 3.669588639059299  0.
-1.442181210883306 3.6725379591622294  0.
-0.9900568487229806 3.672777077699558  0.
-0.5914710774201392 3.6704967921244096  0.
-0.24605954992310405 3.665128773671433  0.
0.04587193792474232 3.655094387863348  0.
0.28402776531912627 3.638061394397293  0.
0.4683427575162985 3.611309948701184  0.
0.5988251348546392 3.5719302541780293  0.
-4.216967382794878 4.216630872682186  0.
-3.515400125726433 4.24058244175596  0.
-2.8804233254322655 4.262015143660738  0.
-2.305638964102383 4.277705715759153  0.
-1.7850072596187483 4.286901409829711  0.
-1.3139744892726035 4.29047377181147  0.
-0.8902137398969032 4.289677154439811  0.
-0.5135790900982393 4.285001744615199  0.
-0.18523525766408153 4.275642986257805  0.
0.09348851601769219 4.259733817234346  0.
0.32176610947990997 4.234913713269856  0.
0.49925133721380055 4.198743401955328  0.
-4.6029377944829575 4.837581851021232  0.
-3.9042798868087423 4.880798921013007  0.
-3.270000207890059 4.916936465993793  0.
-2.6932465089840405 4.943063298459183  0.
-2.166732496201624 4.958846857496389  0.
-1.6844107420551024 4.965967339280442  0.
-1.2426613763900303 4.966885066264175  0.
-0.8407892814137882 4.963489477805247  0.
-0.4804678896273028 4.956056939809313  0.
-0.1642194432285648 4.943195428668585  0.
0.10600806715670927 4.92265358505072  0.
0.3292590079269729 4.892060424024128  0.
-5.002179712532215 5.517960132631643  0.
-4.3119442406482 5.580318600304161  0.
-3.6841661731015374 5.631670914831429  0.
-3.1120859183675544 5.668668772352291  0.
-2.587338429590778 5.691315215470324  0.
-2.1022558738257953 5.701941853960049  0.
-1.6513128414456755 5.704166334602627  0.
-1.2321685567560154 5.7015525901563615  0.
-0.8460541163232186 5.69612710127614  0.
-0.4966449630063319 5.687387742392547  0.
-0.1876181261176415 5.672957057965978  0.
0.0788671887366593 5.650228535252846  0.
-5.416114017502451 6.261926368642752  0.
-4.738333450638512 6.34353838620175  0.
-4.122253040983363 6.4100611597317405  0.
-3.561118355060952 6.457773564251238  0.
-3.0455887120609972 6.486888811160969  0.
-2.5666025540919226 6.500621328197823  0.
-2.116734205866735 6.503399160443287  0.
-1.6910782919111795 6.5001173108979  0.
-1.2884469554145108 6.495063186523659  0.
-0.912278816270427 6.490008836948627  0.
-0.568691417203911 6.483064029135085  0.
-0.2623827363146981 6.470053476454348  0.
-5.850749896403984 7.0789253843514235  0.
-5.1855446127577665 7.179493417139255  0.
-4.585412611285607 7.2602147394361225  0.
-4.0407245858142335 7.314891365798423  0.
-3.5402459858243054 7.347301393989479  0.
-3.0746486876993 7.362146691839645  0.
-2.635679918107194 7.364402180761448  0.
-2.2162973786370257 7.359199521734003  0.
-1.8114976859584107 7.351881423490785  0.
-1.4202401242016112 7.347260405713522  0.
-1.048518303007603 7.346398579498025  0.
-0.7058968872343934 7.346667449504029  0.
-6.31428438330063 7.990063172241836  0.
-5.6627512554049355 8.118048488589805  0.
-5.084841093392109 8.198942258437535  0.
-4.559120397833196 8.247547907084348  0.
-4.075363826135584 8.272610897971331  0.
-3.6254052140117383 8.281223862890165  0.
-3.202049812712707 8.278955703227666  0.
-2.7982974698537286 8.270558803426276  0.
-2.4071560771634477 8.26066784747569  0.
-2.0221123284184874 8.254465825415725  0.
-1.6393654859751796 8.25730961528676  0.
-1.267879126791516 8.26290272387671  0.
-6.83447495118434 9.121112663130527  0.
-6.221140792222477 9.210064461842562  0.
-5.658902587918637 9.252048475049499  0.
-5.145279147739871 9.264737578361235  0.
-4.671258023604182 9.2599606260319  0.
-4.230518907545506 9.244965555009243  0.
-3.8175234825828284 9.224980456065307  0.
-3.4269353006519916 9.204263390409572  0.
-3.053077116634592 9.186841053805056  0.
-2.689336230414304 9.17752066439044  0.
-2.327225116741378 9.184635668658597  0.
-1.9538849055431944 9.232389890071696  0.
</DataArray>
<DataArray type="Float64" Name="Nodal_sigma_xx" NumberOfComponents="1" format="ascii" >
-22.14942657995363 
-15.004169881681769 
-5.441835945891025 
-1.2782751612472942 
1.633933992930163 
3.548537321800609 
4.684147138152888 
5.14437559112917 
5.034257342358503 
4.505649997799534 
3.7475586250832493 
3.334459989713425 
-20.45626908066987 
-14.858145112850176 
-6.346087924767177 
-1.624901263640049 
1.4137644830389613 
3.437480472724995 
4.658144971646528 
5.197844505750135 
5.154180360047239 
4.657234917201887 
3.8975478822935483 
3.4798034254747474 
-17.855174153679485 
-14.28951489039337 
-7.575469216498545 
-2.4374277433434917 
0.9012386394989986 
3.1388895848350993 
4.544688662395988 
5.257252571512553 
5.367041276509916 
4.9695343159331475 
4.225336989185981 
3.7930308714173133 
-16.279418305099508 
-13.490994602702875 
-7.9981238285101215 
-3.2249848475137664 
0.28877534396584786 
2.7195008625910195 
4.317947777501404 
5.221846865179035 
5.516662504621495 
5.274397884417996 
4.597358360420687 
4.166289686956295 
-15.129275856945068 
-12.783839804056338 
-8.073308958621375 
-3.7476198963755682 
-0.30102519350505774 
2.2453341745515565 
4.008228220998518 
5.099484406806867 
5.59165916463297 
5.536403631050344 
4.989626045234025 
4.601557676579373 
-14.286062668207325 
-12.172699330819666 
-7.968236987500287 
-4.055985788324949 
-0.7757886952580481 
1.7840482864039116 
3.6589454453900103 
4.911862158535474 
5.595077155644986 
5.742266024786356 
5.377124721488061 
5.069197910159864 
-13.64351850390306 
-11.655213591595828 
-7.77567642418699 
-4.204736033550347 
-1.1239373681870752 
1.3836896617264407 
3.3124002464866127 
4.688710863378684 
5.541818931670975 
5.890144183024502 
5.73777173528962 
5.536045572276324 
-13.125275404953204 
-11.20850228012843 
-7.544978789394181 
-4.243568881207665 
-1.3585691443434782 
1.061534703995798 
2.9991477244561544 
4.458838958476277 
5.452404172889279 
5.98675237035981 
6.056091528023492 
5.972805835317752 
-12.667985293962595 
-10.801989625032173 
-7.297376729599646 
-4.2100662935759 
-1.5026215688747477 
0.8165261103266257 
2.733763053969334 
4.243477247872294 
5.346564047792146 
6.043078404449651 
6.324137419453004 
6.358895463436587 
-12.215961872770391 
-10.400618830458786 
-7.035856708414778 
-4.128773654735802 
-1.5801186415002595 
0.6366273186427462 
2.517539393298995 
4.053337704498817 
5.238656136570526 
6.070218260060267 
6.540228717503275 
6.683354326130643 
-11.717819628485831 
-9.966538759033536 
-6.750570659420837 
-4.012033086064097 
-1.6117103583329873 
0.5042396640805052 
2.3414967652452483 
3.888630857243067 
5.135308861235001 
6.076252398826972 
6.706495445486716 
6.94311832983463 
-11.125323914026579 
-9.459838767166081 
-6.421419660832694 
-3.860512032598556 
-1.6120291692860447 
0.3998940226923988 
2.188996907804207 
3.7398195700252037 
5.034563626245375 
6.064245902769166 
6.826189752084069 
7.140061606558984 
-10.394283575119104 
-8.839380106609624 
-6.018548156746664 
-3.6623245079025217 
-1.5870266441899277 
0.30520728812101117 
2.0374914655769922 
3.587927546165603 
4.925157758614056 
6.030753361199339 
6.901132296920233 
7.277762703282662 
-9.4878782942695 
-8.064425854834267 
-5.501484904934243 
-3.3901759842042996 
-1.5294581645595522 
0.20685801900671513 
1.859838068006922 
3.40324924226855 
4.78433692503156 
5.963595617691507 
6.928964539486322 
7.3583125519361055 
-8.381829407642941 
-7.097584896127059 
-4.818237972417933 
-2.99712215308522 
-1.4111436790106051 
0.10498127862941742 
1.6278136943028696 
3.142249671419106 
4.571472282151074 
5.8364704786029575 
6.899146182171314 
7.378282847872093 
-7.069477285729812 
-5.906744082102474 
-3.906107719246904 
-2.415684357568416 
-1.173699653995214 
0.030173446715267616 
1.3266282689265143 
2.746943860330976 
4.215119638614605 
5.594190909250248 
6.78323958521466 
7.323123400046306 
-5.538358785147384 
-4.459137916797121 
-2.7018234834190684 
-1.5701091876208895 
-0.7334806293946341 
0.06428303329437868 
0.9976614650228117 
2.1736424658518247 
3.5968139703781596 
5.11846649447099 
6.5096594955996965 
7.145013072828181 
-3.706074208113745 
-2.6550089572176603 
-1.1469361354206424 
-0.4470417269671807 
-0.03265243281602703 
0.3274173389934327 
0.7955928173981374 
1.518205370856497 
2.6254207234298903 
4.156403304739143 
5.871910856232294 
6.720646788725093 
-0.6550757792484603 
-0.14392447331626218 
0.5447118623705187 
0.7757122808489679 
0.8410219882086576 
0.8661709712777544 
0.9340592887818148 
1.139377539519904 
1.6229698464330409 
2.5996905664760126 
4.310136727644431 
5.376669878015711 
1.3874135194583754 
1.355537628956435 
1.3640298950699492 
1.3735286709359358 
1.2961165148630354 
1.2001119119536172 
1.1137901148555214 
1.081985458827045 
1.1990271350032697 
1.6886272833146005 
3.1971314135604683 
4.328021758187597 
</DataArray>
<DataArray type="Float64" Name="Nodal_sigma_yy" NumberOfComponents="1" format="ascii" >
-7.506762311882749 
-5.71676555138159 
-2.9900256115371313 
-1.1362056234437192 
0.44995254353447944 
1.581811598224618 
2.3074232037482707 
2.6603443859437705 
2.7087502653054307 
2.5567051649527492 
2.3357409046335134 
2.225140350894718 
-4.488833175747279 
-4.0843108246863435 
-2.9524196537663983 
-1.4699524534587525 
-0.08696893328966986 
1.011898550724066 
1.7948873380138715 
2.274905228920833 
2.4968812644402907 
2.5346949029141452 
2.4940663893988773 
2.469588825018765 
-1.2574381361726419 
-1.9342960213307672 
-2.4405254926641207 
-1.8189451967703345 
-0.8638048439497008 
0.0985308505098683 
0.9339378249907428 
1.600108176752511 
2.0972467926836718 
2.447346715797985 
2.6888339891836126 
2.7884493543972457 
-0.9195827000743064 
-1.2006191849150423 
-1.6553098856546413 
-1.6463933476631807 
-1.1190007935411295 
-0.3779567085334091 
0.40495643972955453 
1.1411449548347439 
1.791859028959232 
2.341405228774186 
2.771519259790473 
2.9533035134980756 
-0.7467086635763391 
-0.8733469393945892 
-1.1416809195063888 
-1.2538915348792552 
-1.0120907557547074 
-0.48344132117138655 
0.1944893191469219 
0.9248690152152015 
1.6469309259298062 
2.3214878532977687 
2.910589106763542 
3.1784125434465302 
-0.6716143473485614 
-0.6987582580467948 
-0.7994479572627157 
-0.8635534284305112 
-0.7158788532258739 
-0.32652527415861987 
0.24941612234753077 
0.938663382260336 
1.6812285805825748 
2.431032482617155 
3.1469307212205164 
3.491165071492374 
-0.6273172967141847 
-0.5927901960186086 
-0.5565872163023694 
-0.5164447299349421 
-0.35555570018799454 
-0.01764525071434271 
0.4923914409909994 
1.138185363135352 
1.8759302522383352 
2.6657235366571843 
3.4721390840242963 
3.8752609785630643 
-0.5938252187733559 
-0.5156385409111495 
-0.3691125896183969 
-0.21389410324276525 
0.011834959824764513 
0.35895252852681925 
0.8456491960147976 
1.4631570395158278 
2.188359278682917 
2.9940787069263557 
3.854711619032482 
4.295748447469597 
-0.5607100875318827 
-0.44751719869888035 
-0.20960228576923848 
0.0535483315765429 
0.36253171875622114 
0.7522016882478644 
1.2469433127609326 
1.8542726104791147 
2.5678683513436233 
3.373858867543015 
4.256834019132249 
4.71571154662038 
-0.5227211775030405 
-0.3780898751466266 
-0.06147713589680836 
0.29676501095486496 
0.689494584375317 
1.1346431741027703 
1.6544239280884394 
2.2640895064899174 
2.9685771345385352 
3.7645305401466187 
4.6448311817043955 
5.105101495021628 
-0.4770503581454451 
-0.3022373667524414 
0.08465458367325118 
0.5248126342498753 
0.9935865078034538 
1.4944214366135875 
2.0441657091323604 
2.660868985854817 
3.3563783188238157 
4.13465884979062 
4.994330108979542 
5.444131019166486 
-0.42253644917711186 
-0.21822875747976533 
0.23284752220196428 
0.7436583924165174 
1.2786677454944226 
1.8293050766182881 
2.406132612719275 
3.027777736676733 
3.710795255172225 
4.464474159930251 
5.291263822737529 
5.72290425114967 
-0.3594914012263466 
-0.12710631392497337 
0.38263378271970244 
0.9554614212372989 
1.5484670508266207 
2.142167198524529 
2.740012529105302 
3.360204064196157 
4.023697775464149 
4.745114523554499 
5.530246719791576 
5.93894252741333 
-0.2898848573160865 
-0.03227322899704489 
0.5299842626096736 
1.1587075380631977 
1.804706258169273 
2.4373126876644715 
3.0511519838253003 
3.6623418256602776 
4.296759541665877 
4.976201374799356 
5.711649996491264 
6.094038833826176 
-0.21598203081448056 
0.06245467454071117 
0.6713883166650444 
1.352659335958712 
2.04862872939776 
2.7185020079880324 
3.3464926905836796 
3.9431873653003158 
4.5378653875765025 
5.16309346231994 
5.838336070554341 
6.189646666524752 
-0.14202697091683056 
0.16056815278481348 
0.820748145405737 
1.5554678743993362 
2.2964349487370312 
2.9951147419187594 
3.631850882439903 
4.210683169560109 
4.757189930556413 
5.310724833375217 
5.911328557077052 
6.2279604134389706 
-0.03113214911219364 
0.3044408026083718 
1.0559708326442685 
1.8724069898866036 
2.6365674379785022 
3.3222739864339745 
3.9267992145723127 
4.460599049686368 
4.949057155694298 
5.42594748155673 
5.917592883840485 
6.169506280003442 
0.0380389238741695 
0.637527157183732 
1.7435538494581888 
2.655128832597142 
3.3751342479548203 
3.9353116706227396 
4.374779927260786 
4.730183678573059 
5.045459814670267 
5.392354615775632 
5.84905853482549 
6.112999762708665 
1.6744080373484966 
2.5122171949870906 
3.874679850000824 
4.721130027035233 
5.219451773344446 
5.467682089673662 
5.533120223502769 
5.460610649128261 
5.28352163477304 
5.051929404317441 
4.888768199539953 
4.8463526693871835 
3.31636546219202 
4.14651844107868 
5.47310417643161 
6.213400302004052 
6.536668050965771 
6.575084075464425 
6.397630872441397 
6.0402619004562945 
5.511523795823251 
4.796032864105282 
3.9803611036965463 
3.5723462946917044 
</DataArray>
<DataArray type="Float64" Name="Nodal_sigma_xy" NumberOfComponents="1" format="ascii" >
2.7397236937123153 
1.546389598794397 
0.28467459905691334 
0.4372921604107934 
0.9416950770592643 
1.518027043993412 
2.0806057762212458 
2.5720564736487717 
2.9402754881360753 
3.1270038508120113 
3.0723202524814632 
2.977327824303468 
1.0989558718698764 
1.025669719841518 
0.849959959855136 
0.8880905665664998 
1.2483793088960375 
1.7096333166747169 
2.1818889016912775 
2.608372095580559 
2.940101064244997 
3.1246912370525126 
3.1158861024236897 
3.058472674660538 
-1.0376263420692258 
0.11116572018414661 
1.3933979890636237 
1.6050616229658399 
1.8161982292096863 
2.1099179622524806 
2.436634636963122 
2.7534135944760605 
3.020071464449556 
3.193544873897368 
3.2358724291985297 
3.2205156081480175 
-1.7630781059854825 
-0.543875374460152 
1.1988183345033616 
1.9144577781592882 
2.238186507414759 
2.4985602590738987 
2.757097354893307 
3.0088444797256217 
3.230723697538668 
3.3881268522733006 
3.435473729779795 
3.425293152730384 
-2.1016244897185947 
-0.9760214570568296 
0.8410161289026545 
1.8923176786316462 
2.4540932517055314 
2.8021937307215126 
3.073916513642468 
3.311807774516265 
3.517790940723742 
3.670497274480522 
3.7261857621915153 
3.722790702026998 
-2.2572201591449987 
-1.2522290526064146 
0.5012393209790825 
1.726147869873828 
2.4981141183371465 
2.9917765865551376 
3.339976710820721 
3.613291486584999 
3.8372531236268315 
4.007574039102545 
4.09264718785932 
4.108118905081013 
-2.3140739460245 
-1.4133989775677849 
0.23660063317246877 
1.5294109675095573 
2.447226175956568 
3.082994297929625 
3.537424000738904 
3.881818725944217 
4.154816443714079 
4.367423112164476 
4.504573587292633 
4.550711483764624 
-2.3092802466695064 
-1.4857010999940925 
0.06420449115438426 
1.3637015680361495 
2.3658270961761483 
3.113104268169079 
3.672961785973587 
4.10430239331367 
4.447141636713928 
4.721652765516884 
4.927643216617907 
5.01215641651902 
-2.258702455264825 
-1.4852703258625777 
-0.015006461755731698 
1.26034758347825 
2.2986800094785487 
3.1193348981798414 
3.765784871362987 
4.281843112574148 
4.701928484319918 
5.048583089123531 
5.331264780150348 
5.45692419686093 
-2.1678853103681024 
-1.4216799641817903 
-0.0059600504891596795 
1.2331979392674015 
2.2738263875323064 
3.1313940415470185 
3.8372251673004776 
4.423209072022855 
4.915685146720012 
5.33452419507503 
5.692865375205921 
5.85810817470998 
-2.0375232014215143 
-1.3004902941264311 
0.08482621751365883 
1.2867077031708216 
2.3074310375338123 
3.1704512311356585 
3.9058278292935222 
4.539466996783029 
5.090399434079406 
5.572955238323215 
5.998911181122101 
6.199086447090899 
-1.8667218413104636 
-1.1253595894894524 
0.25085737867942837 
1.4210092707424589 
2.408699136801745 
3.251204467713738 
3.9862641824673064 
4.6410905214032665 
5.230535952662658 
5.762446326959976 
6.243550546390601 
6.472310558033039 
-1.6554813515477311 
-0.9000599552980474 
0.4857898031143646 
1.634948172602208 
2.5842504075439936 
3.3855475169874927 
4.090960538792608 
4.737367197443991 
5.341017372348512 
5.90416981099561 
6.4259216547013285 
6.676452715991372 
-1.4070101370511137 
-0.6304765881927136 
0.7826810618628868 
1.927345004167152 
2.8413350204718175 
3.58692887760071 
4.234010146489013 
4.838254618710267 
5.426537405769492 
5.999483803624866 
6.546843509204539 
6.812732718723821 
-1.1294999556814243 
-0.3256915235107988 
1.1334811324750085 
2.2963477174899096 
3.1881445922281957 
3.873386162411987 
4.4367615582629085 
4.959534563970038 
5.493483167812209 
6.04812502894362 
6.604928913803575 
6.880694874872859 
-0.8338513272129424 
0.006023953242089597 
1.5323809657820253 
2.7373886174098834 
3.627322378618701 
4.262253487663568 
4.730344800907992 
5.132044074470951 
5.556993080757032 
6.0493013041145245 
6.592739257430244 
6.871686765977014 
-0.5152411389251322 
0.3799886119976157 
1.9969285998685202 
3.245245103555971 
4.136173406482808 
4.739301519737683 
5.131684075516896 
5.403460695541506 
5.662431819090079 
6.0109181408233106 
6.4919742758016135 
6.765315071282525 
-0.06229963196508233 
0.9368896516500922 
2.6335501621159647 
3.814405730518737 
4.6312714760640645 
5.185959495322443 
5.540990058473328 
5.7473582663562555 
5.872672725940051 
6.021104965949999 
6.303828242998465 
6.490889479623611 
1.4326731627037455 
2.2668716449897675 
3.5874135652618717 
4.39058542878812 
4.931063865451961 
5.318520308950907 
5.599717276536273 
5.793645152339948 
5.9157630207045955 
6.01187465632104 
6.220257647182052 
6.378109530197683 
2.642306033489541 
3.242053174674349 
4.158106565403572 
4.667747427312644 
5.002294167616022 
5.259692699967172 
5.476510160406602 
5.663238084490285 
5.820392114672926 
5.965375321618117 
6.249146379547893 
6.458991392658441 
</DataArray>
</PointData>
<CellData>
</CellData>
<Points>
<DataArray type="Float64" Name="Points" NumberOfComponents="3" format="ascii">
0.0 50.0 0.0
0.0 45.4545441 0.0
0.0 40.9090919 0.0
0.0 36.363636 0.0
0.0 31.818182 0.0
0.0 27.272728 0.0
0.0 22.727272 0.0
0.0 18.181818 0.0
0.0 13.636364 0.0
0.0 9.090909 0.0
0.0 4.5454545 0.0
0.0 0.0 0.0
2.52631569 50.5263176 0.0
2.52631569 46.1435394 0.0
2.52631569 41.7607651 0.0
2.52631569 37.3779907 0.0
2.52631569 32.9952164 0.0
2.52631569 28.6124401 0.0
2.52631569 24.2296658 0.0
2.52631569 19.8468895 0.0
2.52631569 15.4641151 0.0
2.52631569 11.0813398 0.0
2.52631569 6.69856453 0.0
2.52631569 2.31578946 0.0
5.05263138 51.0526314 0.0
5.05263138 46.8325348 0.0
5.05263138 42.612442 0.0
5.05263138 38.3923454 0.0
5.05263138 34.1722488 0.0
5.05263138 29.9521523 0.0
5.05263138 25.7320576 0.0
5.05263138 21.511961 0.0
5.05263138 17.2918663 0.0
5.05263138 13.0717707 0.0
5.05263138 8.85167503 0.0
5.05263138 4.63157892 0.0
7.57894754 51.578949 0.0
7.57894754 47.5215302 0.0
7.57894754 43.4641151 0.0
7.57894754 39.4067001 0.0
7.57894754 35.3492813 0.0
7.57894754 31.2918663 0.0
7.57894754 27.2344494 0.0
7.57894754 23.1770344 0.0
7.57894754 19.1196175 0.0
7.57894754 15.0622005 0.0
7.57894754 11.0047846 0.0
7.57894754 6.94736862 0.0
10.1052628 52.1052628 0.0
10.1052628 48.2105255 0.0
10.1052628 44.3157883 0.0
10.1052628 40.421051 0.0
10.1052628 36.5263176 0.0
10.1052628 32.6315804 0.0
10.1052628 28.7368412 0.0
10.1052628 24.8421059 0.0
10.1052628 20.9473686 0.0
10.1052628 17.0526314 0.0
10.1052628 13.1578951 0.0
10.1052628 9.26315784 0.0
12.6315794 52.6315804 0.0
12.6315794 48.8995209 0.0
12.6315794 45.1674652 0.0
12.6315794 41.4354057 0.0
12.6315794 37.7033501 0.0
12.6315794 33.9712906 0.0
12.6315794 30.2392349 0.0
12.6315794 26.5071774 0.0
12.6315794 22.7751198 0.0
12.6315794 19.0430622 0.0
12.6315794 15.3110046 0.0
12.6315794 11.5789471 0.0
15.1578951 53.1578941 0.0
15.1578951 49.5885162 0.0
15.1578951 46.0191383 0.0
15.1578951 42.4497604 0.0
15.1578951 38.8803825 0.0
15.1578951 35.3110046 0.0
15.1578951 31.7416267 0.0
15.1578951 28.1722488 0.0
15.1578951 24.6028709 0.0
15.1578951 21.033493 0.0
15.1578951 17.4641151 0.0
15.1578951 13.8947372 0.0
17.6842098 53.6842117 0.0
17.6842098 50.2775116 0.0
17.6842098 46.8708153 0.0
17.6842098 43.4641151 0.0
17.6842098 40.057415 0.0
17.6842098 36.6507187 0.0
17.6842098 33.2440186 0.0
17.6842098 29.8373203 0.0
17.6842098 26.4306221 0.0
17.6842098 23.0239239 0.0
17.6842098 19.6172256 0.0
17.6842098 16.2105255 0.0
20.2105255 54.2105255 0.0
20.2105255 50.966507 0.0
20.2105255 47.7224884 0.0
20.2105255 44.4784698 0.0
20.2105255 41.2344513 0.0
20.2105255 37.9904289 0.0
20.2105255 34.7464104 0.0
20.2105255 31.5023918 0.0
20.2105255 28.2583733 0.0
20.2105255 25.0143547 0.0
20.2105255 21.7703342 0.0
20.2105255 18.5263157 0.0
22.7368412 54.7368431 0.0
22.7368412 51.6555023 0.0
22.7368412 48.5741615 0.0
22.7368412 45.4928246 0.0
22.7368412 42.4114838 0.0
22.7368412 39.330143 0.0
22.7368412 36.2488022 0.0
22.7368412 33.1674652 0.0
22.7368412 30.0861244 0.0
22.7368412 27.0047855 0.0
22.7368412 23.9234447 0.0
22.7368412 20.8421059 0.0
25.2631588 55.2631569 0.0
25.2631588 52.3444977 0.0
25.2631588 49.4258385 0.0
25.2631588 46.5071754 0.0
25.2631588 43.5885162 0.0
25.2631588 40.669857 0.0
25.2631588 37.7511978 0.0
25.2631588 34.8325348 0.0
25.2631588 31.9138756 0.0
25.2631588 28.9952145 0.0
25.2631588 26.0765553 0.0
25.2631588 23.1578941 0.0
27.7894745 55.7894745 0.0
27.7894745 53.033493 0.0
27.7894745 50.2775116 0.0
27.7894745 47.5215302 0.0
27.7894745 44.7655487 0.0
27.7894745 42.0095711 0.0
27.7894745 39.2535896 0.0
27.7894745 36.4976082 0.0
27.7894745 33.7416267 0.0
27.7894745 30.9856453 0.0
27.7894745 28.2296658 0.0
27.7894745 25.4736843 0.0
30.3157902 56.3157883 0.0
30.3157902 53.7224884 0.0
30.3157902 51.1291847 0.0
30.3157902 48.5358849 0.0
30.3157902 45.942585 0.0
30.3157902 43.3492813 0.0
30.3157902 40.7559814 0.0
30.3157902 38.1626778 0.0
30.3157902 35.5693779 0.0
30.3157902 32.976078 0.0
30.3157902 30.3827744 0.0
30.3157902 27.7894745 0.0
32.8421059 56.8421059 0.0
32.8421059 54.4114838 0.0
32.8421059 51.9808617 0.0
32.8421059 49.5502396 0.0
32.8421059 47.1196175 0.0
32.8421059 44.6889954 0.0
32.8421059 42.2583733 0.0
32.8421059 39.8277512 0.0
32.8421059 37.3971291 0.0
32.8421059 34.966507 0.0
32.8421059 32.5358849 0.0
32.8421059 30.1052628 0.0
35.3684196 57.3684196 0.0
35.3684196 55.1004791 0.0
35.3684196 52.8325348 0.0
35.3684196 50.5645943 0.0
35.3684196 48.2966499 0.0
35.3684196 46.0287094 0.0
35.3684196 43.7607651 0.0
35.3684196 41.4928246 0.0
35.3684196 39.2248802 0.0
35.3684196 36.9569397 0.0
35.3684196 34.6889954 0.0
35.3684196 32.421051 0.0
37.8947372 57.8947372 0.0
37.8947372 55.7894745 0.0
37.8947372 53.6842117 0.0
37.8947372 51.578949 0.0
37.8947372 49.4736824 0.0
37.8947372 47.3684196 0.0
37.8947372 45.2631569 0.0
37.8947372 43.1578941 0.0
37.8947372 41.0526314 0.0
37.8947372 38.9473686 0.0
37.8947372 36.8421059 0.0
37.8947372 34.7368431 0.0
40.421051 58.421051 0.0
40.421051 56.4784698 0.0
40.421051 54.5358849 0.0
40.421051 52.5932999 0.0
40.421051 50.6507187 0.0
40.421051 48.7081337 0.0
40.421051 46.7655487 0.0
40.421051 44.8229675 0.0
40.421051 42.8803825 0.0
40.421051 40.9377975 0.0
40.421051 38.9952164 0.0
40.421051 37.0526314 0.0
42.9473686 58.9473686 0.0
42.9473686 57.1674652 0.0
42.9473686 55.387558 0.0