<?xml version="1.0"?>
<VTKFile type="UnstructuredGrid" version="0.1" byte_order="LittleEndian" compressor="vtkZLibDataCompressor">
<UnstructuredGrid>
<Piece NumberOfPoints="85" NumberOfCells="64">
<PointData>
<DataArray type="Float64" Name="displacement" NumberOfComponents="3" format="ascii" >
0.0 -0.0018  0.
-0.005287938569268411 -0.0035621057815396684  0.
-0.010241884081567966 -0.007993454285806032  0.
-0.014850331343825827 -0.014812033305820455  0.
-0.019115914583772972 -0.0238494000141912  0.
-0.023040278268350995 -0.034933805200747445  0.
-0.02662339760686057 -0.04789511830245203  0.
-0.02986527299499942 -0.06256267464313717  0.
-0.03276589795544854 -0.07876585821444157  0.
-0.03532527293187886 -0.09633404191030431  0.
-0.03754339703865481 -0.11509659743065132  0.
-0.03942027966341606 -0.13488290830540667  0.
-0.04095594015872432 -0.1555222890449723  0.
-0.04215049905467585 -0.17684486344189676  0.
-0.04300142421329365 -0.1986796548957922  0.
-0.04349833705314503 -0.22086142191505354  0.
-0.043628124811189536 -0.24303594021234684  0.
0.000215625 -0.00045  0.
-0.0024594705757655295 -0.0024183158480839562  0.
-0.004927151857401742 -0.00691807339076286  0.
-0.007228963281266971 -0.013814407670635364  0.
-0.00936170654141738 -0.02292796534929866  0.
-0.011323912828073598 -0.03408921913463887  0.
-0.01311548019514297 -0.047127303057419835  0.
-0.01473641781634469 -0.06187164378229091  0.
-0.016186730288603634 -0.0781516082251496  0.
-0.01746641791439676 -0.09579657257377468  0.
-0.018575480615790972 -0.1146359135362931  0.
-0.019513910513508963 -0.1344989953826655  0.
-0.020281672242861346 -0.1552152641871872  0.
-0.02087883371494125 -0.17661380971531368  0.
-0.021308024354615547 -0.19852547040767898  0.
-0.02158145432109301 -0.22076693284610105  0.
-0.0216642610307877 -0.2432042705309669  0.
0.0 0.0  0.
7.138306700324701e-18 -0.0020267010915574657  0.
1.5354999520144467e-17 -0.006563160152766325  0.
2.4160012894418896e-17 -0.013481627998397389  0.
2.969719548312151e-17 -0.02262089186029559  0.
3.6470261260359506e-17 -0.03380767195517973  0.
4.483230774912759e-17 -0.04687136688312169  0.
4.853260993315194e-17 -0.06164129969455109  0.
6.038368044349629e-17 -0.07794685818797417  0.
6.903821332626294e-17 -0.09561741668218593  0.
7.242116250304796e-17 -0.11448234920733345  0.
6.896712778299148e-17 -0.13437105134190216  0.
7.614089979681975e-17 -0.1551128528154309  0.
6.825688243467371e-17 -0.1765371265756513  0.
7.465008407383858e-17 -0.19846843700499253  0.
7.732350658274946e-17 -0.22074100637532404  0.
9.731953584249062e-17 -0.24325577457263317  0.
-0.000215625 -0.00045  0.
0.0024594705757655434 -0.0024183158480839614  0.
0.004927151857401772 -0.006918073390762868  0.
0.007228963281267016 -0.013814407670635364  0.
0.009361706541417441 -0.022927965349298658  0.
0.011323912828073674 -0.03408921913463887  0.
0.013115480195143053 -0.04712730305741983  0.
0.014736417816344785 -0.06187164378229093  0.
0.016186730288603735 -0.07815160822514967  0.
0.017466417914396893 -0.0957965725737747  0.
0.01857548061579112 -0.1146359135362931  0.
0.019513910513509123 -0.1344989953826655  0.
0.020281672242861502 -0.1552152641871872  0.
0.020878833714941408 -0.17661380971531365  0.
0.02130802435461573 -0.19852547040767896  0.
0.02158145432109319 -0.22076693284610113  0.
0.0216642610307879 -0.24320427053096713  0.
0.0 -0.0018  0.
0.0052879385692684265 -0.003562105781539677  0.
0.01024188408156799 -0.007993454285806044  0.
0.014850331343825865 -0.014812033305820456  0.
0.019115914583773028 -0.023849400014191204  0.
0.023040278268351064 -0.03493380520074744  0.
0.026623397606860652 -0.047895118302452036  0.
0.029865272994999522 -0.0625626746431372  0.
0.03276589795544866 -0.07876585821444165  0.
0.035325272931878975 -0.09633404191030437  0.
0.037543397038654946 -0.11509659743065137  0.
0.03942027966341619 -0.13488290830540667  0.
0.04095594015872449 -0.1555222890449723  0.
0.04215049905467604 -0.17684486344189682  0.
0.04300142421329385 -0.19867965489579226  0.
0.0434983370531453 -0.22086142191505362  0.
0.04362812481118982 -0.24303594021234715  0.
</DataArray>
<DataArray type="Float64" Name="Nodal_sigma_xx" NumberOfComponents="1" format="ascii" >
-3964.229211536938 
-3838.124370984431 
-3583.58029462657 
-3327.188224485956 
-3071.256088463784 
-2815.3104571897334 
-2559.3751345642195 
-2303.4374602317685 
-2047.4999950943852 
-1791.5625393903224 
-1535.6248121574818 
-1279.6907603989532 
-1023.7466162702591 
-767.8134963198318 
-511.06732777262323 
-255.6284565518144 
-128.9817816700364 
-2647.6671191771434 
-2560.042134954698 
-2387.837734411384 
-2218.029670288714 
-2047.4971922944796 
-1876.8780922019716 
-1706.2501913937172 
-1535.625018216802 
-1365.0000088038164 
-1194.3750172766931 
-1023.7497717423101 
-853.1190742101345 
-682.4898224552958 
-511.9986156906798 
-343.11851023357383 
-174.38318231435028 
-89.34802846178795 
7.275957614183426e-12 
7.560174708487466e-12 
8.01492205937393e-12 
7.73070496506989e-12 
7.787548383930698e-12 
7.958078640513122e-12 
6.45172804070171e-12 
2.8421709430404007e-12 
2.5579538487363607e-12 
5.3717030823463574e-12 
4.575895218295045e-12 
2.6432189770275727e-12 
-1.4210854715202004e-12 
4.021671884402167e-12 
3.566924533515703e-12 
-8.029132914089132e-12 
-9.915623877532198e-12 
2647.6671191771584 
2560.0421349547123 
2387.8377344113997 
2218.029670288729 
2047.497192294495 
1876.8780922019864 
1706.25019139373 
1535.6250182168105 
1365.0000088038234 
1194.3750172767022 
1023.7497717423145 
853.1190742101401 
682.4898224552992 
511.99861569068185 
343.1185102335796 
174.3831823143484 
89.34802846178141 
3964.2292115369537 
3838.1243709844452 
3583.5802946265835 
3327.1882244859707 
3071.2560884637996 
2815.3104571897466 
2559.375134564232 
2303.43746023178 
2047.4999950943943 
1791.5625393903301 
1535.6248121574813 
1279.690760398959 
1023.7466162702689 
767.8134963198279 
511.06732777262783 
255.62845655182664 
128.98178167004318 
</DataArray>
<DataArray type="Float64" Name="Nodal_sigma_yy" NumberOfComponents="1" format="ascii" >
57.62620326677484 
26.80287919331991 
-2.029748706184421 
-0.13975976931413925 
-0.10656876945049021 
0.012373378548971914 
-0.0006861144624679127 
0.0005009346371593892 
4.5461638677579685e-05 
-0.0006226397368038761 
6.834956624857114e-05 
-0.023578713265166584 
0.1301063425410618 
0.48515087016915004 
5.157744608706718 
-32.98046011601416 
-75.61515933479564 
39.551036742407675 
19.625298639104674 
-0.551537387830102 
-0.4572883639330847 
-0.05480009059401425 
0.002330384580218947 
0.0013216836934830667 
0.00016240619647689414 
2.60637617479631e-05 
-0.00016693025532887873 
-0.00260174036406724 
-0.010924779504298598 
0.06133936750556712 
0.9163968967894793 
3.3879703767070337 
-23.28812844776371 
-51.65911367773812 
8.739675649849232e-13 
-7.460698725481052e-14 
-2.6645352591003757e-13 
1.7834622667578515e-12 
3.424815986363683e-12 
3.8902214782865485e-12 
2.3661073100811336e-12 
-1.084643486137793e-11 
-2.3522517267338117e-11 
-1.2244427693985926e-11 
3.1086244689504383e-12 
3.397282455352979e-12 
-4.303224443447107e-13 
2.9412028368369647e-12 
-7.601697049608447e-12 
-5.098321764762659e-11 
-7.930367473818478e-11 
-39.551036742405266 
-19.62529863910394 
0.5515373878300487 
0.45728836393499606 
0.054800090598590145 
-0.00233038457473711 
-0.0013216836922964603 
-0.00016240620990970456 
-2.606379168668127e-05 
0.00016693022688407666 
0.0026017403497533564 
0.010924779502494708 
-0.06133936751493252 
-0.9163968968183456 
-3.387970376746887 
23.288128447692017 
51.65911367763901 
-57.62620326677177 
-26.80287919331829 
2.029748706184847 
0.13975976931439504 
0.10656876945279237 
-0.012373378545788682 
0.0006861144601089109 
-0.0005009346423321404 
-4.546165150998149e-05 
0.0006226397044031273 
-6.83496010935869e-05 
0.02357871325476424 
-0.13010634255893194 
-0.48515087023276493 
-5.157744608771221 
32.98046011597273 
75.61515933475603 
</DataArray>
<DataArray type="Float64" Name="Nodal_sigma_xy" NumberOfComponents="1" format="ascii" >
-131.98627617706595 
-141.75331398047166 
-150.6460425421165 
-149.43858608475404 
-149.08017032529392 
-149.05765978404045 
-149.06140843023485 
-149.06246575455197 
-149.06255084848755 
-149.06253871925878 
-149.06078758425457 
-149.0499641032796 
-149.05761036256604 
-149.67054012512622 
-153.3013283462701 
-148.46695544793818 
-140.59797494332884 
-234.37499999967582 
-234.374999999676 
-234.37499999967784 
-234.3749999996804 
-234.37499999968557 
-234.37499999969293 
-234.37499999968463 
-234.3749999996829 
-234.37499999970805 
-234.37499999974386 
-234.3749999997752 
-234.37499999976887 
-234.3749999997547 
-234.37499999975768 
-234.3749999997874 
-234.3749999998818 
-234.37499999994617 
-336.76372382228624 
-326.99668601888067 
-318.1039574572391 
-319.3114139146064 
-319.66982967407705 
-319.69234021534527 
-319.68859156913607 
-319.68753424481906 
-319.6874491509306 
-319.6874612802261 
-319.68921241529284 
-319.70003589625446 
-319.6923896369387 
-319.07945987438416 
-315.4486716533057 
-320.28304455183275 
-328.1520250565715 
-234.37499999967753 
-234.37499999967744 
-234.37499999967807 
-234.37499999968057 
-234.3749999996864 
-234.37499999969435 
-234.37499999968932 
-234.37499999969373 
-234.37499999970953 
-234.37499999973733 
-234.3749999997732 
-234.37499999976689 
-234.37499999975 
-234.374999999748 
-234.37499999978937 
-234.37499999990283 
-234.37499999997289 
-131.98627617706833 
-141.7533139804738 
-150.64604254211704 
-149.43858608475503 
-149.08017032529597 
-149.05765978404364 
-149.06140843024087 
-149.0624657545631 
-149.06255084848652 
-149.06253871925145 
-149.06078758425656 
-149.04996410328292 
-149.05761036256604 
-149.6705401251169 
-153.3013283462721 
-148.46695544796555 
-140.5979749433662 
</DataArray>
</PointData>
<CellData>
</CellData>
<Points>
<DataArray type="Float64" Name="Points" NumberOfComponents="3" format="ascii">
0.0 -2.0 0.0
1.0 -2.0 0.0
2.0 -2.0 0.0
3.0 -2.0 0.0
4.0 -2.0 0.0
5.0 -2.0 0.0
6.0 -2.0 0.0
7.0 -2.0 0.0
8.0 -2.0 0.0
9.0 -2.0 0.0
10.0 -2.0 0.0
11.0 -2.0 0.0
12.0 -2.0 0.0
13.0 -2.0 0.0
14.0 -2.0 0.0
15.0 -2.0 0.0
16.0 -2.0 0.0
0.0 -1.0 0.0
1.0 -1.0 0.0
2.0 -1.0 0.0
3.0 -1.0 0.0
4.0 -1.0 0.0
5.0 -1.0 0.0
6.0 -1.0 0.0
7.0 -1.0 0.0
8.0 -1.0 0.0
9.0 -1.0 0.0
10.0 -1.0 0.0
11.0 -1.0 0.0
12.0 -1.0 0.0
13.0 -1.0 0.0
14.0 -1.0 0.0
15.0 -1.0 0.0
16.0 -1.0 0.0
0.0 0.0 0.0
1.0 0.0 0.0
2.0 0.0 0.0
3.0 0.0 0.0
4.0 0.0 0.0
5.0 0.0 0.0
6.0 0.0 0.0
7.0 0.0 0.0
8.0 0.0 0.0
9.0 0.0 0.0
10.0 0.0 0.0
11.0 0.0 0.0
12.0 0.0 0.0
13.0 0.0 0.0
14.0 0.0 0.0
15.0 0.0 0.0
16.0 0.0 0.0
0.0 1.0 0.0
1.0 1.0 0.0
2.0 1.0 0.0
3.0 1.0 0.0
4.0 1.0 0.0
5.0 1.0 0.0
6.0 1.0 0.0
7.0 1.0 0.0
8.0 1.0 0.0
9.0 1.0 0.0
10.0 1.0 0.0
11.0 1.0 0.0
12.0 1.0 0.0
13.0 1.0 0.0
14.0 1.0 0.0
15.0 1.0 0.0
16.0 1.0 0.0
0.0 2.0 0.0
1.0 2.0 0.0
2.0 2.0 0.0
3.0 2.0 0.0
4.0 2.0 0.0
5.0 2.0 0.0
6.0 2.0 0.0
7.0 2.0 0.0
8.0 2.0 0.0
9.0 2.0 0.0
10.0 2.0 0.0
11.0 2.0 0.0
12.0 2.0 0.0
13.0 2.0 0.0
14.0 2.0 0.0
15.0 2.0 0.0
16.0 2.0 0.0
</DataArray>
</Points>
<Cells>
<DataArray type="Int64" Name="connectivity" format="ascii">
0 1 18 17 
1 2 19 18 
2 3 20 19 
3 4 21 20 
4 5 22 21 
5 6 23 22 
6 7 24 23 
7 8 25 24 
8 9 26 25 
9 10 27 26 
10 11 28 27 
11 12 29 28 
12 13 30 29 
13 14 31 30 
14 15 32 31 
15 16 33 32 
17 18 35 34 
18 19 36 35 
19 20 37 36 
20 21 38 37 
21 22 39 38 
22 23 40 39 
23 24 41 40 
24 25 42 41 
25 26 43 42 
26 27 44 43 
27 28 45 44 
28 29 46 45 
29 30 47 46 
30 31 48 47 
31 32 49 48 
32 33 50 49 
34 35 52 51 
35 36 53 52 
36 37 54 53 
37 38 55 54 
38 39 56 55 
39 40 57 56 
40 41 58 57 
41 42 59 58 
42 43 60 59 
43 44 61 60 
44 45 62 61 
45 46 63 62 
46 47 64 63 
47 48 65 64 
48 49 66 65 
49 50 67 66 
51 52 69 68 
52 53 70 69 
53 54 71 70 
54 55 72 71 
55 56 73 72 
56 57 74 73 
57 58 75 74 
58 59 76 75 
59 60 77 76 
60 61 78 77 
61 62 79 78 
62 63 80 79 
63 64 81 80 
64 65 82 81 
65 66 83 82 
66 67 84 83 
</DataArray>
<DataArray type="Int64" Name="offsets" format="ascii">
4
8
12
16
20
24
28
32
36
40
44
48
52
56
60
64
68
72
76
80
84
88
92
96
100
104
108
112
116
120
124
128
132
136
140
144
148
152
156
160
164
168
172
176
180
184
188
192
196
200
204
208
212
216
220
224
228
232
236
240
244
248
252
256
</DataArray>
<DataArray type="UInt8" Name="types" format="ascii" RangeMin="9" RangeMax="9">
9
9
9
9
9
9
9
9
9
9
9
9
9
9
9
9
9
9
9
9
9
9
9
9
9
9
9
9
9
9
9
9
9
9
9
9
9
9
9
9
9
9
9
9
9
9
9
9
9
9
9
9
9
9
9
9
9
9
9
9
9
9
9
9
</DataArray>
</Cells>
</Piece>
</UnstructuredGrid>
</VTKFile>
