<?xml version="1.0"?>
<VTKFile type="UnstructuredGrid" version="0.1" byte_order="LittleEndian" compressor="vtkZLibDataCompressor">
<UnstructuredGrid>
<Piece NumberOfPoints="540" NumberOfCells="493">
<PointData>
<DataArray type="Float64" Name="displacement" NumberOfComponents="3" format="ascii" >
0.0 0.0  0.
0.0 0.0  0.
0.0 0.0  0.
0.0 0.0  0.
0.0 0.0  0.
0.0 0.0  0.
0.0 0.0  0.
0.0 0.0  0.
0.0 0.0  0.
0.0 0.0  0.
0.0 0.0  0.
0.0 0.0  0.
0.0 0.0  0.
0.0 0.0  0.
0.0 0.0  0.
0.0 0.0  0.
0.0 0.0  0.
0.0 0.0  0.
-0.1719275949284064 0.15243331959818746  0.
-0.06538060109706959 0.03334003523415192  0.
-0.04236118314855772 0.003701019505745177  0.
-0.024503704713133404 -0.0028880058239849787  0.
-0.011613531237640097 -0.000898603146341079  0.
-0.001141296802067774 0.006020578466968257  0.
0.007263518135869104 0.015731280477401806  0.
0.013888550558886641 0.027005206538784184  0.
0.018856829215080747 0.03892259629078875  0.
0.022256692545856927 0.050736322093955843  0.
0.024167443309074253 0.061780200439854674  0.
0.02468785710824896 0.07143225461235268  0.
0.023960358813917157 0.07910627597410698  0.
0.022197432738619138 0.08427481607871296  0.
0.019712131228110177 0.0865307164780364  0.
0.016923448081232948 0.08567031060633415  0.
0.014409432405353678 0.08182341576004652  0.
0.011639620191464336 0.07409400322726302  0.
-0.33674529529325054 0.22131869018757339  0.
-0.17242494267321523 0.11288958890720319  0.
-0.09881652645852151 0.04777342551187521  0.
-0.05767022864701897 0.025382589759883126  0.
-0.027542203062684907 0.02251230715186057  0.
-0.004247420095096063 0.03037286015902244  0.
0.01426194180349429 0.04458658550288852  0.
0.02876111577488787 0.06248949279385942  0.
0.03967408462610977 0.08222984671699975  0.
0.04724284222592887 0.1023507346277577  0.
0.05164963020257002 0.12160993285837424  0.
0.05308031715681212 0.1388882862441272  0.
0.051780698765724796 0.15315876495369107  0.
0.04811496159130954 0.16350584349842298  0.
0.04263031370332826 0.16919970686235755  0.
0.03611947383628829 0.1698379621218713  0.
0.029597951284925768 0.1654661612616324  0.
0.023757080788862225 0.156747090470987  0.
-0.48656062895339325 0.29060781885824943  0.
-0.2916780561544193 0.19088517667780025  0.
-0.17535083252237255 0.11813727978648819  0.
-0.10259306026271493 0.0804959761570693  0.
-0.05140305889558023 0.06911670627893161  0.
-0.01228195062772708 0.07368890784628476  0.
0.018381466156234223 0.0882015798631232  0.
0.042346250423489176 0.10879629544905335  0.
0.06048717037309427 0.13276119894633298  0.
0.07330835282246737 0.1580062392738315  0.
0.08114381246876325 0.18279250676765546  0.
0.08428157296523656 0.20559496937332944  0.
0.08305426959316244 0.22504231030019628  0.
0.07792846798364166 0.23991853336336594  0.
0.06960517220234781 0.24922930878382854  0.
0.059125688724835014 0.25234003587809123  0.
0.04795220826604228 0.24921501382009792  0.
0.037818066459301594 0.24076352542099627  0.
-0.6287900109426398 0.3639188919639  0.
-0.41474683901788617 0.2730141682024107  0.
-0.26488275989178645 0.2004245975568435  0.
-0.16088665702717622 0.1556298418218914  0.
-0.08535798365726935 0.13612475008758498  0.
-0.027795339880832916 0.13538295855494295  0.
0.017224643656169374 0.14733881862894735  0.
0.052428813337729065 0.16756609876660838  0.
0.07930215603971122 0.1927658000658826  0.
0.0986961961515161 0.22035664043168818  0.
0.1111564353028462 0.24820348210832754  0.
0.11710109018456406 0.274458221808911  0.
0.11694950658942696 0.29747907767741905  0.
0.11123823360111468 0.31581200812021737  0.
0.10074829438701087 0.328235177695906  0.
0.08665212858510296 0.3338807914150883  0.
0.07067263727546155 0.3324611132476445  0.
0.05517079155164421 0.32464062138692923  0.
-0.7671131767513 0.44425028352852475  0.
-0.539123817339916 0.36095226066376507  0.
-0.3629775255804695 0.292002623965414  0.
-0.23069360826014582 0.2448561189601374  0.
-0.13031103709153707 0.220055494043318  0.
-0.05247187473968701 0.2139740220361921  0.
0.00878877924142808 0.2219546271669361  0.
0.05698904142238263 0.23975802870947654  0.
0.09418216176580936 0.2639090670738126  0.
0.12160948131809014 0.2915584998063267  0.
0.1400661914972612 0.32030969951507987  0.
0.15012815937645607 0.3480841193805429  0.
0.15230924812550017 0.37303898376883643  0.
0.14719775118405437 0.39353515336317485  0.
0.13560047128628588 0.4081590009744545  0.
0.11871245932267274 0.41581059076843024  0.
0.09832070292223075 0.4158831671928049  0.
0.07701529826307511 0.40857051219960827  0.
-0.9039031630514749 0.5329242036900053  0.
-0.6642877002251742 0.4562715228775558  0.
-0.46706650741908806 0.3921428303713133  0.
-0.31004293840162456 0.3455642718464733  0.
-0.1858556333270589 0.31798892903044906  0.
-0.08715782080178433 0.30769776052050035  0.
-0.0083617559902856 0.31146081321860386  0.
0.054322428009003144 0.3257566307210791  0.
0.1033472725439778 0.34732218003806353  0.
0.1402905259226252 0.37329636659665344  0.
0.16619647732743092 0.4011838065556423  0.
0.18180893833519282 0.4287830103776356  0.
0.18774245689000327 0.4541251493572395  0.
0.18462817167739443 0.47544101596154875  0.
0.1732632746249946 0.49116536957044393  0.
0.1547860765314921 0.4999912038027155  0.
0.13089300613379903 0.5009932167208863  0.
0.10409882903025175 0.4938498923212305  0.
-1.0406833715504096 0.6308600632760818  0.
-0.7904885097355793 0.5601215975830567  0.
-0.5758021273680652 0.5010738170205782  0.
-0.39736922316092466 0.45664901976805583  0.
-0.2511877756082429 0.4282152011128645  0.
-0.13200166127924434 0.41506160814191356  0.
-0.03510529236739437 0.4150831504016768  0.
0.04311897414739351 0.4255661867145075  0.
0.10525698180526222 0.44370279526655787  0.
0.1530998097848202 0.466833938288593  0.
0.18788986769737354 0.49252611630132126  0.
0.21052270799337608 0.5185686178117263  0.
0.22170914039511538 0.5429477958190663  0.
0.22211696701224518 0.5638247691498711  0.
0.21251438538203243 0.5795317135229707  0.
0.1939359074373506 0.5885992222983059  0.
0.16788970314739649 0.5898301697382776  0.
0.13661969995970832 0.5824416276837655  0.
-1.1785108925359014 0.7387767003696311  0.
-0.9182407595645302 0.6734381705866073  0.
-0.6885880329964469 0.6193612092790493  0.
-0.4915961716505357 0.5778862944184381  0.
-0.32548583043624196 0.5499007123804903  0.
-0.18679559438058677 0.5351084625523941  0.
-0.071868150116302 0.5321542609079072  0.
0.02245635053260528 0.539032290926256  0.
0.09865573534934416 0.5534554611961835  0.
0.15857774006586356 0.5730949436038129  0.
0.2035755784835111 0.5957036551785602  0.
0.2346528714343455 0.6191643734859622  0.
0.25259709458664914 0.6414986720703523  0.
0.2581035565404408 0.6608616680744116  0.
0.2519023792808464 0.6755385060784571  0.
0.234904642289436 0.6839548769151431  0.
0.20838513421999263 0.68471353315607  0.
0.17421855673966283 0.6766723833200904  0.
-1.3181650508569804 0.8573167160632063  0.
-1.048118798548475 0.7970370059970796  0.
-0.8052708525183938 0.747709898621867  0.
-0.5920695958797327 0.7095333550698582  0.
-0.4080764267947463 0.6828312499316717  0.
-0.2512016895992911 0.6673802920547485  0.
-0.11878860532977999 0.6622648548380523  0.
-0.008264437177092061 0.6660181184548257  0.
0.08257061833273827 0.6768362865090207  0.
0.1554775295743373 0.6927616407426911  0.
0.2118194464026029 0.7118061899824174  0.
0.252646080194154 0.7320222201614672  0.
0.2787875972901216 0.751535034579531  0.
0.29095148661747233 0.7685540369878643  0.
0.28982527746855663 0.7813742576144465  0.
0.2761960179408714 0.788378655711853  0.
0.25110022741321475 0.788050596806116  0.
0.21602009418592033 0.7790068361645814  0.
-1.4602546577026627 0.9871066835381813  0.
-1.180676866877674 0.9316819612272502  0.
-0.9259513867707323 0.8868846515667892  0.
-0.6984606874881314 0.8521200799255749  0.
-0.498484220990771 0.82720588609515  0.
-0.3248881595485898 0.8118276467628559  0.
-0.17585543925730174 0.8052924572889976  0.
-0.04941272804033114 0.8065078643645641  0.
0.05627213651908189 0.8140691655777764  0.
0.1427659571871423 0.8263724250951568  0.
0.2113505909905346 0.8417128829604121  0.
0.2630542092571298 0.8583554991931192  0.
0.29870712748374617 0.874578508823233  0.
0.3190073608471909 0.8886954302635769  0.
0.3245956177234241 0.8990628095298409  0.
0.31614487386710305 0.9040803247668369  0.
0.29447453179428407 0.9021900213727233  0.
0.26070178260754845 0.8918812611697337  0.
-1.6052681327744622 1.1287886053752487  0.
-1.3164249764613247 1.0781257524346044  0.
-1.0508684175815313 1.0376828574636405  0.
-0.8106765701769164 1.0063334088750304  0.
-0.5964309600685889 0.9834960230676603  0.
-0.4076007794732018 0.9687112354943066  0.
-0.24300834502599633 0.9613778797438409  0.
-0.10121672801705403 0.960647004044074  0.
0.019215382111146644 0.965420609973607  0.
0.11959907582273686 0.9744015367967018  0.
0.20106397776070956 0.986157744396669  0.
0.2645564354259244 0.9991806053786784  0.
0.31086248105515607 1.0119284192532354  0.
0.3406453292084001 1.0228536088399374  0.
0.35449273184868807 1.030415209023713  0.
0.35297724660602064 1.0330800600964887  0.
0.3367354905825442 1.0293164567028825  0.
0.30657586409871224 1.0175842832345743  0.
-1.7536031197016202 1.2830361343130459  0.
-1.4558206297358085 1.2371311775282992  0.
-1.1803287070548945 1.20092503517496  0.
-0.9287863295284443 1.1729531326879783  0.
-0.7018091410279076 1.152349724089575  0.
-0.49919331480301393 1.1385172613432817  0.
-0.3202036512724524 1.1308806232254884  0.
-0.16383807181223048 1.128744520276198  0.
-0.029020757778112853 1.1312375822525211  0.
0.08528163509974922 1.1373139324859194  0.
0.18000351505621923 1.1457848782741504  0.
0.2559618254712692 1.1553601646094895  0.
0.3138586721519588 1.1646856787178037  0.
0.3542966153927411 1.1723711562322359  0.
0.3778023139155185 1.1770054908371799  0.
0.3848606156151794 1.177160119383913  0.
0.37596284674282165 1.1713819444255327  0.
0.35167576140904677 1.1581777210926782  0.
-1.9055743393144051 1.4505596385621322  0.
-1.5992659984697835 1.409480112883889  0.
-1.3146685388237473 1.3774509236431887  0.
-1.052968336888019 1.3528155479334882  0.
-0.8146497959834088 1.334528624712545  0.
-0.5996333947947583 1.3218908771596096  0.
-0.40745306553974514 1.3143314861293998  0.
-0.2374272199480606 1.3112559557171974  0.
-0.08879021216636242 1.3119601757792683  0.
0.03922266601954429 1.3155988318101226  0.
0.14733247236638478 1.3211907072801161  0.
0.2361961380691618 1.3276433849553757  0.
0.30640072034715166 1.3337831604341845  0.
0.3584645150217535 1.3383808090586629  0.
0.3928434518249038 1.3401683047523543  0.
0.40994402019094156 1.3378446375327278  0.
0.4101462316454881 1.3300706023025302  0.
0.3938405126896028 1.3154530526356503  0.
-2.0614211786242524 1.6321053396302956  0.
-1.7471102341319988 1.5959742171915103  0.
-1.4542255906493595 1.5681138893784097  0.
-1.183467119798937 1.5467893357240443  0.
-0.9350892343931428 1.5308644273376673  0.
-0.7089939235595909 1.5195847383103482  0.
-0.5048418111673547 1.512388425800792  0.
-0.32216122472735503 1.5087575987050235  0.
-0.16042702241078752 1.5081178353241933  0.
-0.019110791230411456 1.5097852995192764  0.
0.10229683501806972 1.512952554730275  0.
0.2042780191990317 1.5166997388989087  0.
0.2872828122936262 1.5200173322440245  0.
0.3517261901380708 1.5218297125531013  0.
0.3979831512757496 1.5210126636991739  0.
0.4263870628224 1.5164017284654832  0.
0.43723309916117725 1.5067901599995968  0.
0.4307909388341475 1.490916128504554  0.
-2.2213027504689498 1.8284484797292433  0.
-1.8996418447514074 1.7974280946295553  0.
-1.599320725151426 1.7737727009938355  0.
-1.3205609268730183 1.755757457677802  0.
-1.0633371838966952 1.7422275478630243  0.
-0.827435924096204 1.7324194108429036  0.
-0.6125336933907928 1.7257983570543025  0.
-0.4182677135953034 1.721918664429417  0.
-0.2442790380756539 1.7203170451178689  0.
-0.09023179719708833 1.7204460418657206  0.
0.04418871602489662 1.7216457191472856  0.
0.15928783745839376 1.7231447176073105  0.
0.255367157605415 1.724077791959428  0.
0.3327229312978696 1.7235081859823616  0.
0.39163941877237796 1.7204465606052202  0.
0.43237753767502735 1.713862150602405  0.
0.4551654543113931 1.7026845115343683  0.
0.46019386100609144 1.6857952341987004  0.
-2.3852996620811777 2.040382411239834  0.
-2.057086647264899 2.014657856991112  0.
-1.7502386302465605 1.9952788356665996  0.
-1.4645334089211388 1.9805995267069632  0.
-1.1996455224268865 1.9695013539349284  0.
-0.9551852737597533 1.9612510951334656  0.
-0.7307608732278164 1.9553637023745458  0.
-0.5260317644994414 1.9514731146028463  0.
-0.3407315919138568 1.9492233676834643  0.
-0.17466735219893234 1.9481920348940422  0.
-0.02769023071987237 1.9478504942007653  0.
0.10033568611561809 1.9475570207952326  0.
0.20955701420353257 1.9465713193291754  0.
0.3001419358852481 1.9440775040627  0.
0.37227369548438005 1.9392056965106896  0.
0.4261375289038396 1.9310469366544598  0.
0.46190351074088176 1.9186592142206196  0.
0.4797104886827055 1.9010641491510367  0.
-2.5534079064173887 2.268705603016368  0.
-2.219599361196602 2.248467272521082  0.
-1.9072150683995985 2.2334633068101026  0.
-1.6156479655181037 2.222176266328926  0.
-1.344277213787985 2.213561988011472  0.
-1.0925046065041317 2.2069469060213858  0.
-0.8598073795396994 2.2019161737204445  0.
-0.6457934226849874 2.198196179192526  0.
-0.45021929278792955 2.195544676436928  0.
-0.27297869475234965 2.1936648863382002  0.
-0.11405649092241428 2.192154427684166  0.
0.026528306213556507 2.1904904453230754  0.
0.14876758483115393 2.188042156416622  0.
0.25269250286056355 2.1840964425402936  0.
0.3383753173588317 2.1778842869407096  0.
0.40591903472630986 2.168600618392287  0.
0.4554363540962773 2.155415475135945  0.
0.4870277105880353 2.1374759341371856  0.
-2.7255444357093777 2.5142053545072915  0.
-2.3872530865456185 2.499630316868128  0.
-2.0704167778587297 2.4891192096024293  0.
-1.7741182310427168 2.4813112418740864  0.
-1.4974726780903111 2.4752576745929726  0.
-1.2396591554367042 2.4703614549117336  0.
-0.99998055753388 2.466292187332853  0.
-0.7779299224262165 2.462881357624388  0.
-0.5732208196504215 2.4600123678591252  0.
-0.3857742478240649 2.4575244474274274  0.
-0.21566804131956302 2.455147614157481  0.
-0.0630585173145529 2.45247713886185  0.
0.07189483985664517 2.4489830098534484  0.
0.1890769691051419 2.4440396464905247  0.
0.28843884377657186 2.4369595130795103  0.
0.3699897610160674 2.427020352319491  0.
0.4337792925596778 2.4134824000102233  0.
0.4798711614391974 2.395596060856774  0.
-2.901548417924486 2.7776410109949605  0.
-2.5600370766321983 2.7688750931502097  0.
-2.239925266474943 2.762985868786112  0.
-1.940083690812644 2.758774503373382  0.
-1.6594136945479159 2.7553904793103503  0.
-1.3968764978747732 2.752316603087045  0.
-1.1515721799709497 2.7493118595138295  0.
-0.9228261141653982 2.7463208513108266  0.
-0.7102409186621906 2.743365203249822  0.
-0.513703366712902 2.7404370064997705  0.
-0.33333413812186735 2.737415776792177  0.
-0.16940044903278495 2.7340260960738827  0.
-0.022211464245908783 2.729839566040123  0.
0.10796312351792788 2.7243082872085425  0.
0.22093687916002996 2.7168085205248778  0.
0.31661105834638287 2.7066785284821804  0.
0.39495926086863214 2.693244039554953  0.
0.45600122582724706 2.67583207312761  0.
-3.0812038689274637 3.0597309881971597  0.
-2.737853578387983 3.0568719209037423  0.
-2.4157186885365087 3.055737199981162  0.
-2.113579978799187 3.055269284644192  0.
-1.830185434763213 3.054700369450948  0.
-1.5642998198644993 3.053582853352396  0.
-1.3148083910691484 3.051759276210331  0.
-1.080823440945591 3.0492870101862946  0.
-0.8617726062428396 3.0463340599539155  0.
-0.6574333994180759 3.0430639193153732  0.
-0.46790852363861085 3.0395318298370926  0.
-0.2935376738191988 3.0356169683091907  0.
-0.1347712768870546 3.0310069754794995  0.
0.007953471746864725 3.0252305347768353  0.
0.13428970528800097 3.017713718381447  0.
0.24400897743766495 3.0078333034920632  0.
0.3369904698542488 2.994954305297999  0.
0.41319469652460156 2.9784515945900996  0.
-3.2642677483089932 3.361151155865597  0.
-2.920525056799845 3.3642357817447808  0.
-2.5976686368190562 3.36798419095982  0.
-2.2945177540360113 3.371430724373653  0.
-2.009741376206255 3.3738576971627356  0.
-1.7419422811495031 3.374865604020795  0.
-1.4897902754793686 3.3743648722976025  0.
-1.252155745280967 3.3725149039646856  0.
-1.0282298940835184 3.36962820807249  0.
-0.8175991532801813 3.3660528198502733  0.
-0.6202620554774658 3.3620500611183295  0.
-0.43656873774837174 3.357693784232414  0.
-0.26708777156052604 3.352821439474006  0.
-0.11244083551517998 3.347052379026078  0.
0.026832850276649417 3.339855234601705  0.
0.15034121777222928 3.3306243892259633  0.
0.25784167141267644 3.31873669202434  0.
0.34921303627333244 3.303584536358938  0.
-3.450534774219708 3.6825516381530727  0.
-3.107827357296135 3.691550928310166  0.
-2.785545133875912 3.700298499402608  0.
-2.4826744258311852 3.7078411488377925  0.
-2.1978795488554264 3.713465191297612  0.
-1.9296416968435244 3.7167926216978144  0.
-1.6764312409792406 3.717781433723276  0.
-1.4368663544283917 3.716673441067621  0.
-1.2098542944517787 3.713909601373362  0.
-0.9947061161573062 3.710020165855115  0.
-0.7912065682329351 3.7054954028088627  0.
-0.5996114060771711 3.700653706860716  0.
-0.42054740691883613 3.695542025844926  0.
-0.25482297373168483 3.689911392704962  0.
-0.10321752492151698 3.6832804531566774  0.
0.03365797873924046 3.6750423860095975  0.
0.15539574130907105 3.664556096639926  0.
0.261761861280716 3.6511981455034683  0.
-3.6399318604670086 4.024631033396752  0.
-3.299544377234612 4.039458507440134  0.
-2.979053815419713 4.053298383667597  0.
-2.6777200942639716 4.0650991843169315  0.
-2.3942532747251963 4.074100945636547  0.
-2.127051503473311 4.0799267772121315  0.
-1.8744178892180943 4.082569210900078  0.
-1.6347312762204866 4.082332046347894  0.
-1.4065986714169036 4.079755370283811  0.
-1.1889901403605978 4.075524428917905  0.
-0.9813563167778802 4.070354225136871  0.
-0.7837028014980373 4.064847099685811  0.
-0.5965762267917629 4.059342114874744  0.
-0.42092033344362617 4.053809604284278  0.
-0.2578021744357983 4.047861081029211  0.
-0.1081444151601282 4.040879186567845  0.
0.027402379449326327 4.0321678199040525  0.
0.1484426090983256 4.021048335707975  0.
-3.832679698498912 4.38829364080111  0.
-3.4955814263037146 4.4088399638901645  0.
-3.1779301196100844 4.427825880849465  0.
-2.879297482854313 4.443966881470111  0.
-2.598442764242866 4.456415111021767  0.
-2.333694578672096 4.464804621135017  0.
-2.0832239988931556 4.469176639496028  0.
-1.8452172541732534 4.46989348248755  0.
-1.618012721901338 4.467563178661748  0.
-1.400225183313488 4.462972885693617  0.
-1.1908829719375942 4.45701061570943  0.
-0.9895613668395813 4.4505513743595415  0.
-0.796488781667515 4.444294344854687  0.
-0.6125433578764976 4.438571407681664  0.
-0.43905374994686297 4.433215302558342  0.
-0.2773847124114759 4.427626105262444  0.
-0.1285849065841281 4.421011736549212  0.
0.006692268312558209 4.4125737846842  0.
-4.0295305438076 4.775012361837695  0.
-3.6961451254018587 4.801216642343055  0.
-3.382117176829544 4.825339663682364  0.
-3.0872241527813293 4.84569448636443  0.
-2.8101642524917843 4.861365902180311  0.
-2.54915813444161 4.8720673197634055  0.
-2.3022722265986895 4.877964071263815  0.
-2.067575874850008 4.879517425832528  0.
-1.8432307219174886 4.877394474326428  0.
-1.6275712554154245 4.872423588850538  0.
-1.4192051364248797 4.865565241632237  0.
-1.2171613675456974 4.857864572752674  0.
-1.021074395712286 4.850347661392212  0.
-0.8313585389914597 4.843826472352879  0.
-0.6492753083670766 4.8386190283933255  0.
-0.4766784362709794 4.834331592076174  0.
-0.31530408104583474 4.830037347740432  0.
-0.1662971657667748 4.824734571175536  0.
-4.23209831343414 5.187532403805765  0.
-3.9020259706061315 5.219577198592266  0.
-3.592105537885595 5.248654863021249  0.
-3.3018850992426545 5.2726443430860375  0.
-3.029706418085084 5.290660815002803  0.
-2.773537499917856 5.302722852399022  0.
-2.5313524220144807 5.309293755606517  0.
-2.301201648465151 5.311039880857926  0.
-2.0812215233319997 5.308727022032817  0.
-1.869630220137821 5.3031941983635384  0.
-1.664767838502145 5.2953667752073335  0.
-1.4651792088198492 5.286280567415333  0.
-1.2697769425859216 5.277083936904621  0.
-1.078091839629054 5.268965919406155  0.
-0.8905927384340349 5.262929788186307  0.
-0.7089755033214066 5.259335501327489  0.
-0.5359355974214758 5.257408971887146  0.
-0.3737200120731013 5.255667650258746  0.
-4.443447988131605 5.631618478515161  0.
-4.115079216755096 5.670017005402008  0.
-3.8095828923011985 5.703538951846592  0.
-3.5250927570205346 5.729392530788976  0.
-3.2588141727559434 5.747478533919881  0.
-3.0082971549514497 5.758597161690488  0.
-2.7714567156318513 5.763767821494687  0.
-2.546442456059211 5.7640020250869375  0.
-2.3315351840406446 5.760240854220851  0.
-2.1250636059598493 5.753360329557683  0.
-1.9253676147500436 5.74421029587789  0.
-1.7307948999292633 5.733674522019067  0.
-1.5397548247423825 5.722744709614563  0.
-1.3508678991456127 5.71259188858532  0.
-1.1632498518380474 5.704582658373849  0.
-0.9770468053060822 5.700094220477526  0.
-0.7942975726718164 5.6997597707469385  0.
-0.619348009120484 5.7021533721112485  0.
-4.667553710090702 6.119155146203756  0.
-4.338925629909662 6.166486944749183  0.
-4.039448997934378 6.2011583565778885  0.
-3.7619845996506327 6.223899884958621  0.
-3.502302066024578 6.237043199441689  0.
-3.257667280517278 6.242671171741297  0.
-3.0260781619333805 6.242480206340724  0.
-2.8059032501456 6.237839506716488  0.
-2.595693910385962 6.229871101881362  0.
-2.394064511431118 6.2195175504074935  0.
-2.1996099817680164 6.207598526599631  0.
-2.010851661667604 6.194866321017746  0.
-1.8261947681139787 6.1820724113441345  0.
-1.643913437039718 6.170061720769722  0.
-1.4621959668456634 6.159914725375158  0.
-1.2793093026936837 6.153146454444926  0.
-1.0941281594039711 6.151846502375471  0.
-0.9081601570647614 6.1574409204718785  0.
-4.906901786181162 6.689899290983097  0.
-4.586501300909621 6.7362100050988545  0.
-4.295352088683638 6.758098241914108  0.
-4.024527571925379 6.766142299553045  0.
-3.7702838631626188 6.765216834612656  0.
-3.5302028894240465 6.758091604276235  0.
-3.3025071370866743 6.746571233660387  0.
-3.0857753416203417 6.7319727618318534  0.
-2.8787836029194036 6.715344755520237  0.
-2.6804117704790773 6.697576434439499  0.
-2.4895672196026246 6.679455891630865  0.
-2.305124094770269 6.661705428275667  0.
-2.125857962963871 6.645007902606724  0.
-1.9503791540712323 6.630038723227816  0.
-1.777036865875599 6.617526113853828  0.
-1.603779412067682 6.608406559541158  0.
-1.4278785532279321 6.604320246897913  0.
-1.2451833893225694 6.609727538504153  0.
</DataArray>
<DataArray type="Float64" Name="Nodal_sigma_xx" NumberOfComponents="1" format="ascii" >
-17.300563705152815 
-12.71261593789413 
-6.64020968852566 
-3.9747686727043843 
-1.8980823154967579 
-0.2854039438076585 
0.9954458287834775 
1.989546090580101 
2.7280817378120767 
3.2322925971285072 
3.5208206260627644 
3.613550019418649 
3.53554763467156 
3.32130556907296 
3.0183408282048236 
2.6917053953022183 
2.3737765827579893 
2.2156565291952055 
-15.923721497676095 
-12.526965167415153 
-7.294115965975601 
-4.240035445017301 
-2.083840403329787 
-0.4072562949337879 
0.9121991633830082 
1.9378891267892877 
2.7041797439383233 
3.2345126562026065 
3.547777626278726 
3.662962878949092 
3.6031087108733404 
3.3995515127779363 
3.096181120207989 
2.752652049567565 
2.422339953901436 
2.2653157670382855 
-13.85966359042951 
-11.987023207746743 
-8.137858625890924 
-4.826297708669511 
-2.4830173480512805 
-0.6887446808361348 
0.7141881651367079 
1.8063105705264242 
2.6314321106362017 
3.217032289223165 
3.583117173429576 
3.7474028436892763 
3.7294349152819595 
3.55476783344517 
3.2597197232740838 
2.895391470078658 
2.5335078780587317 
2.3637055738999937 
-12.693226397889045 
-11.336406772511655 
-8.349949025739845 
-5.344809248232546 
-2.9114772368818786 
-1.022724952547975 
0.4621242653778712 
1.6238625121452306 
2.5120043644823578 
3.1575202583299893 
3.581881508258837 
3.802317163747638 
3.8358325686617816 
3.7031308740496036 
3.4330809712543116 
3.0685794566402427 
2.672824427808999 
2.47647870531477 
-11.883606934765876 
-10.791981254267796 
-8.316663725987066 
-5.6488691384656216 
-3.295377051333791 
-1.366461703071857 
0.17894284824812068 
1.4038685840542429 
2.3538980631150337 
3.060585514379043 
3.5459900059176377 
3.826951423057558 
3.9185296610239657 
3.8373745662880174 
3.605676716116828 
3.2563133632782404 
2.8394435950349437 
2.621710579001814 
-11.31744119266094 
-10.344375552714784 
-8.174003437749398 
-5.798515246733041 
-3.584315517784807 
-1.681803550525198 
-0.10864755372355431 
1.1632471938650057 
2.1679154928550415 
2.9329146130688226 
3.479049679566696 
3.82219639899471 
3.9756564352637267 
3.9527106733138755 
3.769702261669491 
3.4501403347156385 
3.0302218991904537 
2.8006875979443002 
-10.910182693537669 
-9.986559405226945 
-7.992421824506837 
-5.844603176615755 
-3.7822544004816274 
-1.9446792986464463 
-0.3779491512239821 
0.9197174977884266 
1.9666105417487572 
2.783046003976903 
3.3864302453236457 
3.7907189244478485 
4.0073103519364155 
4.046598576092889 
3.920085477964262 
3.643308576530323 
3.2399425886082254 
3.010229568505562 
-10.611574103042628 
-9.703282762700178 
-7.80770477206828 
-5.827374369280051 
-3.905302855829589 
-2.150080363214676 
-0.6142804946196672 
0.6881831013445721 
1.7624704470155717 
2.6204883127744645 
3.2748892251863717 
3.7367907709871444 
4.015398514154716 
4.11854720991186 
4.05386285330834 
3.8305848050420988 
3.462265225423556 
3.243908772368944 
-10.388247330883551 
-9.479256812092842 
-7.636055686568462 
-5.774980917161898 
-3.972173344129809 
-2.302256294700732 
-0.811835310935808 
0.47880291185223195 
1.5660336140061588 
2.4545015933473846 
3.1518288031027017 
3.6658264840049783 
4.003293519358114 
4.169756359382063 
4.169819084041446 
4.008048205487156 
3.6904776481979393 
3.493646263024326 
-10.216940994529816 
-9.300386184495931 
-7.4830306823489305 
-5.705564734488345 
-3.99957751221946 
-2.409641359003659 
-0.9708166009888698 
0.29670834274218383 
1.384821268882217 
2.2929670244624427 
3.024409869013593 
3.5837272068407438 
3.975327198985587 
4.202693484540159 
4.268142142909811 
4.172992365585654 
3.9181534955647033 
3.750925072700989 
-10.080143791064732 
-9.154045592041966 
-7.348405607894272 
-5.629834153368122 
-4.000730632954857 
-2.481713595146884 
-1.0950145235525575 
0.14301175156669954 
1.2231122402346086 
2.141690246660077 
2.8987679428505584 
3.4961801932278274 
3.9362045832072186 
4.220612368014964 
4.350067784671083 
4.323817213182998 
4.139640465899571 
4.0077038496667825 
-9.963563073626323 
-9.0287824684466 
-7.228844297156841 
-5.553245514353009 
-3.9852100972156816 
-2.5273222621324116 
-1.189960080195418 
0.015988529536907325 
1.0823178502117041 
2.0041696993166735 
2.779490825394865 
3.408054162244592 
3.890427977986267 
4.227056204756065 
4.4175049962996535 
4.459875392164258 
4.350362933698435 
4.257029658246692 
-9.854612857960898 
-8.91390764090907 
-7.119285537261571 
-5.477626341482443 
-3.959353780286084 
-2.5538991424911237 
-1.2616802486604133 
-0.08785688318812937 
0.9615693231323718 
1.881703650148212 
2.6693797443340306 
3.322974958071325 
3.841809577449255 
4.22539265520488 
4.472659710525357 
4.581266821264798 
4.546947438126754 
4.493383443521602 
-9.74153095329126 
-8.799134781452313 
-7.013630476337424 
-5.40226938770128 
-3.9267881491006 
-2.567174386256575 
-1.3159213723374887 
-0.1729474447323842 
0.8583361315634661 
1.773673054706097 
2.569426319283627 
3.2430864932902037 
3.793116564181115 
4.218425352448236 
4.517682356321561 
4.688595009333715 
4.727192424671743 
4.712788823929342 
-9.612916569325698 
-8.674321570948907 
-6.905041771157783 
-5.324612239562168 
-3.8888926109435014 
-2.57113150837016 
-1.3576885442786377 
-0.24401758787915218 
0.7689729037446 
1.6778917453745814 
2.478931287312612 
3.1689689960566256 
3.7458480296734646 
4.208097609489732 
4.5543603134544215 
4.782706761646628 
4.889917835865546 
4.912733906401382 
-9.457548698157419 
-8.529327471649077 
-6.786043228886054 
-5.240609909966739 
-3.845126359262472 
-2.5680410804433667 
-1.390971571724553 
-0.3056660552581838 
0.6891743645656879 
1.590951385682252 
2.3956847735103457 
3.099656054668225 
3.7001198036937932 
4.195284901359767 
4.583863228153066 
4.864430462503101 
5.034732937043139 
5.0919626222365295 
-9.264437116467391 
-8.354003976236893 
-6.648536413358315 
-5.144892168568017 
-3.7931883790918994 
-2.558460671617384 
-1.4185408365250363 
-0.3620156316082508 
0.6143380065955624 
1.5085172897232002 
2.316152959318475 
3.0326964446279403 
3.654612273489895 
4.179654233737578 
4.606535427286509 
4.934320956090255 
5.161748777239873 
5.250173561145882 
-9.023095084319324 
-8.13832603989763 
-6.483792172261074 
-5.030770728020567 
-3.7290104083704696 
-2.5411315640420122 
-1.4417195653967305 
-0.41640980351569257 
0.5398703623836709 
1.4255733166767652 
2.235628403325115 
2.964208613220145 
3.6065360070704484 
4.1595482602097515 
4.621709947843178 
4.992408945388938 
5.271250450309159 
5.387648965447873 
-8.724009842091604 
-7.872677979040514 
-6.282472248974004 
-4.8901553429465 
-3.6466062455288664 
-2.51273430528742 
-1.4600464338826602 
-0.4710412716265928 
0.46150508123678735 
1.3366259027851548 
2.14830658603891 
2.8888606610750536 
3.5515474360785007 
4.131848592038472 
4.6275161050025435 
5.037939649519936 
5.363342185333733 
5.5048432754831 
-8.35933381362165 
-7.548307380997548 
-6.034719648611857 
-4.713441617468291 
-3.5378118505813303 
-2.4674830626700617 
-1.4707513312569729 
-0.5263995739326854 
0.37574402546841124 
1.2359301114964856 
2.0472957257640036 
2.7997260800392043 
3.4835314363015537 
4.091736732832994 
4.620619223344548 
5.069063509273743 
5.437555717591451 