<?xml version="1.0"?>
<VTKFile type="UnstructuredGrid" version="0.1" byte_order="LittleEndian" compressor="vtkZLibDataCompressor">
<UnstructuredGrid>
<Piece NumberOfPoints="43" NumberOfCells="8">
<PointData>
<DataArray type="Float64" Name="displacement" NumberOfComponents="3" format="ascii" >
0.0 0.0  0.
0.007433420432281933 0.00836458629109495  0.
0.01532520665052799 0.033206750951551275  0.
0.022093807446586334 0.07500350436272193  0.
0.026332477348343344 0.13325248568047443  0.
0.027838501037890907 0.20595546174075  0.
0.02682003353686907 0.29179580947948636  0.
0.022964938390654634 0.38939632504054356  0.
0.016342894459921726 0.49762064324686656  0.
0.006895924534245185 0.6150377682021682  0.
-0.005072224485446843 0.7404815509111926  0.
-0.019523960696045253 0.8726239910288147  0.
-0.036058711611222934 1.0103313840708472  0.
-0.05455879847853913 1.1523214055087694  0.
-0.07454321599288269 1.297454198617428  0.
-0.09582279976686771 1.444546707860933  0.
-0.11788228130045607 1.5924190519260755  0.
0.0 0.0  0.
-0.0007639597342403686 0.031168897349814973  0.
-0.005870620639659565 0.13022004996985528  0.
-0.0183420476599378 0.2868072454433683  0.
-0.03939695150648644 0.49064881529723386  0.
-0.06889346442725088 0.7316860137591427  0.
-0.1055717858901087 1.0001325175675075  0.
-0.14738806679448804 1.2864534913262997  0.
-0.1918022718453592 1.5812990987486892  0.
0.0 0.0  0.
-0.007757496188090233 0.008144719200911652  0.
-0.01695399932155948 0.03207906235318658  0.
-0.02732301171511814 0.07254745250861729  0.
-0.038356521114477356 0.1289559907746039  0.
-0.05028186585366039 0.19981729369752005  0.
-0.06379517626275029 0.283449883898737  0.
-0.0787959881469925 0.3789232744825098  0.
-0.09543018342145553 0.4849167476190292  0.
-0.11345641222131764 0.6003263474449038  0.
-0.13296079972965646 0.7238131666511729  0.
-0.15357786614130567 0.8543041765391494  0.
-0.1752627527033775 0.9905371012959552  0.
-0.19754878711281842 1.1314224529678656  0.
-0.2203166145344758 1.275724381024385  0.
-0.2430675154228537 1.4223464211038899  0.
-0.2657497769896702 1.5702102922107537  0.
</DataArray>
<DataArray type="Float64" Name="Nodal_sigma_xx" NumberOfComponents="1" format="ascii" >
-0.039440456750283244 
-0.039440456750283244 
-0.032647198414316944 
-0.025853940078350648 
-0.009108106201650182 
0.007637727675050283 
0.01710135017697567 
0.02656497267890106 
0.03581410656184146 
0.04506324044478186 
0.0513573185918617 
0.05765139673894154 
0.062291912581890194 
0.06693242842483885 
0.07381051315304066 
0.08068859788124245 
0.08068859788124245 
-0.039440456750283244 
-0.032647198414316944 
-0.009108106201650182 
0.01710135017697567 
0.03581410656184146 
0.0513573185918617 
0.062291912581890194 
0.07381051315304066 
0.08068859788124245 
-0.039440456750283244 
-0.039440456750283244 
-0.032647198414316944 
-0.025853940078350648 
-0.009108106201650182 
0.007637727675050283 
0.01710135017697567 
0.02656497267890106 
0.03581410656184146 
0.04506324044478186 
0.0513573185918617 
0.05765139673894154 
0.062291912581890194 
0.06693242842483885 
0.07381051315304066 
0.08068859788124245 
0.08068859788124245 
</DataArray>
<DataArray type="Float64" Name="Nodal_sigma_yy" NumberOfComponents="1" format="ascii" >
-0.03403993718953304 
-0.03403993718953304 
-0.05968588621092494 
-0.08533183523231683 
-0.0697914282807973 
-0.054251021329277775 
-0.04769943475180195 
-0.04114784817432613 
-0.032482166351439475 
-0.023816484528552822 
-0.018295087468346204 
-0.012773690408139589 
-0.00638456920592587 
4.5519962878493025e-06 
0.035926379452966686 
0.07184820690964552 
0.07184820690964552 
-0.03403993718953304 
-0.05968588621092494 
-0.0697914282807973 
-0.04769943475180195 
-0.032482166351439475 
-0.018295087468346204 
-0.00638456920592587 
0.035926379452966686 
0.07184820690964552 
-0.03403993718953304 
-0.03403993718953304 
-0.05968588621092494 
-0.08533183523231683 
-0.0697914282807973 
-0.054251021329277775 
-0.04769943475180195 
-0.04114784817432613 
-0.032482166351439475 
-0.023816484528552822 
-0.018295087468346204 
-0.012773690408139589 
-0.00638456920592587 
4.5519962878493025e-06 
0.035926379452966686 
0.07184820690964552 
0.07184820690964552 
</DataArray>
<DataArray type="Float64" Name="Nodal_sigma_xy" NumberOfComponents="1" format="ascii" >
0.22849049576574543 
0.22849049576574543 
0.24869551598498282 
0.2689005362042202 
0.262969050490592 
0.25703756477696377 
0.2571062250964178 
0.25717488541587186 
0.2557598477930612 
0.25434481017025057 
0.2534346991488757 
0.2525245881275008 
0.251950913662649 
0.2513772391977972 
0.2505325905934285 
0.2496879419890598 
0.2496879419890598 
0.22849049576574543 
0.24869551598498282 
0.262969050490592 
0.2571062250964178 
0.2557598477930612 
0.2534346991488757 
0.251950913662649 
0.2505325905934285 
0.2496879419890598 
0.22849049576574543 
0.22849049576574543 
0.24869551598498282 
0.2689005362042202 
0.262969050490592 
0.25703756477696377 
0.2571062250964178 
0.25717488541587186 
0.2557598477930612 
0.25434481017025057 
0.2534346991488757 
0.2525245881275008 
0.251950913662649 
0.2513772391977972 
0.2505325905934285 
0.2496879419890598 
0.2496879419890598 
</DataArray>
</PointData>
<CellData>
</CellData>
<Points>
<DataArray type="Float64" Name="Points" NumberOfComponents="3" format="ascii">
0.0 0.0 0.0
0.5 0.0 0.0
1.0 0.0 0.0
1.5 0.0 0.0
2.0 0.0 0.0
2.5 0.0 0.0
3.0 0.0 0.0
3.5 0.0 0.0
4.0 0.0 0.0
4.5 0.0 0.0
5.0 0.0 0.0
5.5 0.0 0.0
6.0 0.0 0.0
6.5 0.0 0.0
7.0 0.0 0.0
7.5 0.0 0.0
8.0 0.0 0.0
0.0 0.25 0.0
1.0 0.25 0.0
2.0 0.25 0.0
3.0 0.25 0.0
4.0 0.25 0.0
5.0 0.25 0.0
6.0 0.25 0.0
7.0 0.25 0.0
8.0 0.25 0.0
0.0 0.5 0.0
0.5 0.5 0.0
1.0 0.5 0.0
1.5 0.5 0.0
2.0 0.5 0.0
2.5 0.5 0.0
3.0 0.5 0.0
3.5 0.5 0.0
4.0 0.5 0.0
4.5 0.5 0.0
5.0 0.5 0.0
5.5 0.5 0.0
6.0 0.5 0.0
6.5 0.5 0.0
7.0 0.5 0.0
7.5 0.5 0.0
8.0 0.5 0.0
</DataArray>
</Points>
<Cells>
<DataArray type="Int64" Name="connectivity" format="ascii">
0 2 28 26 
2 4 30 28 
4 6 32 30 
6 8 34 32 
8 10 36 34 
10 12 38 36 
12 14 40 38 
14 16 42 40 
</DataArray>
<DataArray type="Int64" Name="offsets" format="ascii">
8
16
24
32
40
48
56
64
</DataArray>
<DataArray type="UInt8" Name="types" format="ascii" RangeMin="9" RangeMax="9">
9
9
9
9
9
9
9
9
</DataArray>
</Cells>
</Piece>
</UnstructuredGrid>
</VTKFile>
