<?xml version="1.0"?>
<VTKFile type="UnstructuredGrid" version="0.1" byte_order="LittleEndian" compressor="vtkZLibDataCompressor">
<UnstructuredGrid>
<Piece NumberOfPoints="43" NumberOfCells="8">
<PointData>
<DataArray type="Float64" Name="displacement" NumberOfComponents="3" format="ascii" >
0.0 0.0  0.
0.0032206025231311776 0.0035468709931530244  0.
0.006766887604979782 0.014072591042071323  0.
0.010124813102500829 0.03183234233400218  0.
0.012803973346707501 0.05663239541122705  0.
0.014761329176961139 0.0876967089439374  0.
0.016151518955955006 0.12444741892953182  0.
0.01685463409522331 0.1663660941145706  0.
0.016911673360776536 0.2129630444632195  0.
0.01626369780356335 0.2636700191991479  0.
0.015017188589265954 0.31797316803262204  0.
0.013128760538460425 0.3753294589856268  0.
0.010718429542101284 0.43523142987837077  0.
0.007758848088084194 0.4971384327635054  0.
0.004384373248578614 0.5605325747594887  0.
0.0005904315999636735 0.6249018417113127  0.
-0.0034854424226500465 0.6897034096996714  0.
0.0 0.0  0.
-0.000139973021862108 0.013337326983008997  0.
-0.0010790729793918263 0.05585196525239171  0.
-0.0033826912080645974 0.1233173970832584  0.
-0.007290111174580382 0.211505867873292  0.
-0.012789334312588477 0.3162083361623606  0.
-0.01965627031437889 0.43323709605982225  0.
-0.02751568614344883 0.5584246737404608  0.
-0.035892518069079844 0.6876190200222124  0.
0.0 0.0  0.
-0.0032799145473268584 0.0035066318049543003  0.
-0.007065307844732296 0.013865669382566972  0.
-0.011084500198975899 0.03138086691502845  0.
-0.015014479699974397 0.055840645681138626  0.
-0.018893891728198338 0.08656323095014325  0.
-0.02297124062281424 0.12290233169656935  0.
-0.027169264976323756 0.1644227820629929  0.
-0.031547254602725505 0.21060000015888442  0.
-0.036015212031135245 0.2609275844585415  0.
-0.0406426043460644 0.3148589129644896  0.
-0.04531326112418482 0.3718996825026721  0.
-0.05006593310632233 0.43151858168442825  0.
-0.054763065083372385 0.49321111607276275  0.
-0.05943003831716616 0.5564451935943799  0.
-0.06393159838660611 0.6207129331489495  0.
-0.06832046619301538 0.6855547866100244  0.
</DataArray>
<DataArray type="Float64" Name="Nodal_sigma_xx" NumberOfComponents="1" format="ascii" >
-0.007248213698478759 
-0.007248213698478759 
-0.006067440567425376 
-0.004886667436371992 
-0.0018552873260252825 
0.0011760927843214276 
0.0028994494874313094 
0.0046228061905411915 
0.00633823748777017 
0.008053668784999147 
0.009219211621125031 
0.010384754457250917 
0.011449335963409787 
0.01251391746956866 
0.014736463798428152 
0.016959010127287646 
0.016959010127287646 
-0.007248213698478759 
-0.006067440567425376 
-0.0018552873260252825 
0.0028994494874313094 
0.00633823748777017 
0.009219211621125031 
0.011449335963409787 
0.014736463798428152 
0.016959010127287646 
-0.007248213698478759 
-0.007248213698478759 
-0.006067440567425376 
-0.004886667436371992 
-0.0018552873260252825 
0.0011760927843214276 
0.0028994494874313094 
0.0046228061905411915 
0.00633823748777017 
0.008053668784999147 
0.009219211621125031 
0.010384754457250917 
0.011449335963409787 
0.01251391746956866 
0.014736463798428152 
0.016959010127287646 
0.016959010127287646 
</DataArray>
<DataArray type="Float64" Name="Nodal_sigma_yy" NumberOfComponents="1" format="ascii" >
-0.006255657690733637 
-0.006255657690733637 
-0.010999581271894468 
-0.0157435048530553 
-0.012916331313947536 
-0.010089157774839774 
-0.008902916251239497 
-0.00771667472763922 
-0.0061022353198475505 
-0.004487795912055881 
-0.003448474351809884 
-0.0024091527915638873 
-0.0003699451322224473 
0.0016692625271189927 
0.01656542803068963 
0.03146159353426027 
0.03146159353426027 
-0.006255657690733637 
-0.010999581271894468 
-0.012916331313947536 
-0.008902916251239497 
-0.0061022353198475505 
-0.003448474351809884 
-0.0003699451322224473 
0.01656542803068963 
0.03146159353426027 
-0.006255657690733637 
-0.006255657690733637 
-0.010999581271894468 
-0.0157435048530553 
-0.012916331313947536 
-0.010089157774839774 
-0.008902916251239497 
-0.00771667472763922 
-0.0061022353198475505 
-0.004487795912055881 
-0.003448474351809884 
-0.0024091527915638873 
-0.0003699451322224473 
0.0016692625271189927 
0.01656542803068963 
0.03146159353426027 
0.03146159353426027 
</DataArray>
<DataArray type="Float64" Name="Nodal_sigma_xy" NumberOfComponents="1" format="ascii" >
0.09499465279279724 
0.09499465279279724 
0.10382454309767367 
0.11265443340255007 
0.11037953498560071 
0.10810463656865134 
0.10856282977335978 
0.10902102297806822 
0.10879942248458588 
0.10857782199110352 
0.10852302395218039 
0.10846822591325724 
0.108458801295545 
0.10844937667783278 
0.10820663566977448 
0.10796389466171617 
0.10796389466171617 
0.09499465279279724 
0.10382454309767367 
0.11037953498560071 
0.10856282977335978 
0.10879942248458588 
0.10852302395218039 
0.108458801295545 
0.10820663566977448 
0.10796389466171617 
0.09499465279279724 
0.09499465279279724 
0.10382454309767367 
0.11265443340255007 
0.11037953498560071 
0.10810463656865134 
0.10856282977335978 
0.10902102297806822 
0.10879942248458588 
0.10857782199110352 
0.10852302395218039 
0.10846822591325724 
0.108458801295545 
0.10844937667783278 
0.10820663566977448 
0.10796389466171617 
0.10796389466171617 
</DataArray>
</PointData>
<CellData>
</CellData>
<Points>
<DataArray type="Float64" Name="Points" NumberOfComponents="3" format="ascii">
0.0 0.0 0.0
0.5 0.0 0.0
1.0 0.0 0.0
1.5 0.0 0.0
2.0 0.0 0.0
2.5 0.0 0.0
3.0 0.0 0.0
3.5 0.0 0.0
4.0 0.0 0.0
4.5 0.0 0.0
5.0 0.0 0.0
5.5 0.0 0.0
6.0 0.0 0.0
6.5 0.0 0.0
7.0 0.0 0.0
7.5 0.0 0.0
8.0 0.0 0.0
0.0 0.25 0.0
1.0 0.25 0.0
2.0 0.25 0.0
3.0 0.25 0.0
4.0 0.25 0.0
5.0 0.25 0.0
6.0 0.25 0.0
7.0 0.25 0.0
8.0 0.25 0.0
0.0 0.5 0.0
0.5 0.5 0.0
1.0 0.5 0.0
1.5 0.5 0.0
2.0 0.5 0.0
2.5 0.5 0.0
3.0 0.5 0.0
3.5 0.5 0.0
4.0 0.5 0.0
4.5 0.5 0.0
5.0 0.5 0.0
5.5 0.5 0.0
6.0 0.5 0.0
6.5 0.5 0.0
7.0 0.5 0.0
7.5 0.5 0.0
8.0 0.5 0.0
</DataArray>
</Points>
<Cells>
<DataArray type="Int64" Name="connectivity" format="ascii">
0 2 28 26 
2 4 30 28 
4 6 32 30 
6 8 34 32 
8 10 36 34 
10 12 38 36 
12 14 40 38 
14 16 42 40 
</DataArray>
<DataArray type="Int64" Name="offsets" format="ascii">
8
16
24
32
40
48
56
64
</DataArray>
<DataArray type="UInt8" Name="types" format="ascii" RangeMin="9" RangeMax="9">
9
9
9
9
9
9
9
9
</DataArray>
</Cells>
</Piece>
</UnstructuredGrid>
</VTKFile>
