<?xml version="1.0"?>
<VTKFile type="UnstructuredGrid" version="0.1" byte_order="LittleEndian" compressor="vtkZLibDataCompressor">
<UnstructuredGrid>
<Piece NumberOfPoints="43" NumberOfCells="8">
<PointData>
<DataArray type="Float64" Name="displacement" NumberOfComponents="3" format="ascii" >
0.0 0.0  0.
0.008556904872572935 0.009687097173267208  0.
0.017545542029426854 0.03845503805833612  0.
0.025020976807215864 0.0868113207038416  0.
0.029278597974872266 0.15414857094258852  0.
0.030058086495701793 0.23809680242407116  0.
0.027553625611859152 0.3371351620438441  0.
0.021402228487669008 0.44961807344185034  0.
0.011679021473934794 0.5742296123843482  0.
-0.001652135895874727 0.7092865463440059  0.
-0.01822241308675529 0.8534514985713403  0.
-0.037941405219551375 1.005177506652166  0.
-0.0603102429652102 1.16317456709444  0.
-0.08513573642305718 1.3259638407937324  0.
-0.11181387277339867 1.4922572758531774  0.
-0.14006577332098216 1.6607022092220036  0.
-0.16924181033617017 1.8299717785300127  0.
0.0 0.0  0.
-0.0010190024086804694 0.036001906429023116  0.
-0.007820853938337034 0.1502747277252273  0.
-0.024404233428808632 0.33065785692645977  0.
-0.052351437057833156 0.5651002545439134  0.
-0.09143721935083034 0.8418939184104369  0.
-0.13996623358143712 1.149748352384969  0.
-0.19522202471094402 1.4777556742983229  0.
-0.2538496525807283 1.815287051881246  0.
0.0 0.0  0.
-0.00898936246063994 0.009393700813741778  0.
-0.01971812347714859 0.03695172712029527  0.
-0.03199150576608457 0.08353944671566309  0.
-0.045296000617716485 0.1484303705244775  0.
-0.05993707239925349 0.22993394987344548  0.
-0.07674751047091617 0.3260470397698427  0.
-0.09563639314429537 0.4357158518138059  0.
-0.1167689647111982 0.5573815618351119  0.
-0.139858152917667 0.68979170469649  0.
-0.16497565770313338 0.8313814462068986  0.
-0.1916729005465422 0.9809382023168968  0.
-0.21985466166926163 1.1370021837023558  0.
-0.24894126440211767 1.298347443630169  0.
-0.2787404088260935 1.4635565517558955  0.
-0.30862489456261394 1.6313985942081974  0.
-0.3384816074075425 1.800634932652254  0.
</DataArray>
<DataArray type="Float64" Name="Nodal_sigma_xx" NumberOfComponents="1" format="ascii" >
-0.052551028351482086 
-0.052551028351482086 
-0.04331329066986672 
-0.034075552988251365 
-0.011640116397506518 
0.010795320193238329 
0.023440343110608768 
0.0360853660279792 
0.048370869691304996 
0.06065637335463078 
0.06898961445296814 
0.07732285555130551 
0.08329805186697539 
0.08927324818264527 
0.09769542088976804 
0.10611759359689082 
0.10611759359689082 
-0.052551028351482086 
-0.04331329066986672 
-0.011640116397506518 
0.023440343110608768 
0.048370869691304996 
0.06898961445296814 
0.08329805186697539 
0.09769542088976804 
0.10611759359689082 
-0.052551028351482086 
-0.052551028351482086 
-0.04331329066986672 
-0.034075552988251365 
-0.011640116397506518 
0.010795320193238329 
0.023440343110608768 
0.0360853660279792 
0.048370869691304996 
0.06065637335463078 
0.06898961445296814 
0.07732285555130551 
0.08329805186697539 
0.08927324818264527 
0.09769542088976804 
0.10611759359689082 
0.10611759359689082 
</DataArray>
<DataArray type="Float64" Name="Nodal_sigma_yy" NumberOfComponents="1" format="ascii" >
-0.04535534485169659 
-0.04535534485169659 
-0.07943888960572623 
-0.11352243435975588 
-0.09274104939068117 
-0.07195966442160648 
-0.0631892671884696 
-0.05441886995533271 
-0.04291082156632967 
-0.031402773177326634 
-0.024098670801545215 
-0.01679456842576379 
-0.008961361105202376 
-0.0011281537846409592 
0.04060109320648273 
0.08233034019760642 
0.08233034019760642 
-0.04535534485169659 
-0.07943888960572623 
-0.09274104939068117 
-0.0631892671884696 
-0.04291082156632967 
-0.024098670801545215 
-0.008961361105202376 
0.04060109320648273 
0.08233034019760642 
-0.04535534485169659 
-0.04535534485169659 
-0.07943888960572623 
-0.11352243435975588 
-0.09274104939068117 
-0.07195966442160648 
-0.0631892671884696 
-0.05441886995533271 
-0.04291082156632967 
-0.031402773177326634 
-0.024098670801545215 
-0.01679456842576379 
-0.008961361105202376 
-0.0011281537846409592 
0.04060109320648273 
0.08233034019760642 
0.08233034019760642 
</DataArray>
<DataArray type="Float64" Name="Nodal_sigma_xy" NumberOfComponents="1" format="ascii" >
0.2667774405570983 
0.2667774405570983 
0.2899053178081936 
0.3130331950592889 
0.3058832187573315 
0.2987332424553741 
0.2983358802241616 
0.29793851799294907 
0.2958814313279058 
0.2938243446628625 
0.2924092162566038 
0.29099408785034514 
0.2900784450085818 
0.28916280216681856 
0.2880644057118834 
0.2869660092569483 
0.2869660092569483 
0.2667774405570983 
0.2899053178081936 
0.3058832187573315 
0.2983358802241616 
0.2958814313279058 
0.2924092162566038 
0.2900784450085818 
0.2880644057118834 
0.2869660092569483 
0.2667774405570983 
0.2667774405570983 
0.2899053178081936 
0.3130331950592889 
0.3058832187573315 
0.2987332424553741 
0.2983358802241616 
0.29793851799294907 
0.2958814313279058 
0.2938243446628625 
0.2924092162566038 
0.29099408785034514 
0.2900784450085818 
0.28916280216681856 
0.2880644057118834 
0.2869660092569483 
0.2869660092569483 
</DataArray>
</PointData>
<CellData>
</CellData>
<Points>
<DataArray type="Float64" Name="Points" NumberOfComponents="3" format="ascii">
0.0 0.0 0.0
0.5 0.0 0.0
1.0 0.0 0.0
1.5 0.0 0.0
2.0 0.0 0.0
2.5 0.0 0.0
3.0 0.0 0.0
3.5 0.0 0.0
4.0 0.0 0.0
4.5 0.0 0.0
5.0 0.0 0.0
5.5 0.0 0.0
6.0 0.0 0.0
6.5 0.0 0.0
7.0 0.0 0.0
7.5 0.0 0.0
8.0 0.0 0.0
0.0 0.25 0.0
1.0 0.25 0.0
2.0 0.25 0.0
3.0 0.25 0.0
4.0 0.25 0.0
5.0 0.25 0.0
6.0 0.25 0.0
7.0 0.25 0.0
8.0 0.25 0.0
0.0 0.5 0.0
0.5 0.5 0.0
1.0 0.5 0.0
1.5 0.5 0.0
2.0 0.5 0.0
2.5 0.5 0.0
3.0 0.5 0.0
3.5 0.5 0.0
4.0 0.5 0.0
4.5 0.5 0.0
5.0 0.5 0.0
5.5 0.5 0.0
6.0 0.5 0.0
6.5 0.5 0.0
7.0 0.5 0.0
7.5 0.5 0.0
8.0 0.5 0.0
</DataArray>
</Points>
<Cells>
<DataArray type="Int64" Name="connectivity" format="ascii">
0 2 28 26 
2 4 30 28 
4 6 32 30 
6 8 34 32 
8 10 36 34 
10 12 38 36 
12 14 40 38 
14 16 42 40 
</DataArray>
<DataArray type="Int64" Name="offsets" format="ascii">
8
16
24
32
40
48
56
64
</DataArray>
<DataArray type="UInt8" Name="types" format="ascii" RangeMin="9" RangeMax="9">
9
9
9
9
9
9
9
9
</DataArray>
</Cells>
</Piece>
</UnstructuredGrid>
</VTKFile>
