<?xml version="1.0"?>
<VTKFile type="UnstructuredGrid" version="0.1" byte_order="LittleEndian" compressor="vtkZLibDataCompressor">
<UnstructuredGrid>
<Piece NumberOfPoints="43" NumberOfCells="8">
<PointData>
<DataArray type="Float64" Name="displacement" NumberOfComponents="3" format="ascii" >
0.0 0.0  0.
0.009641971532917487 0.010980649182669975  0.
0.019663292507446282 0.043584125916126835  0.
0.027735868993612755 0.09833350005185074  0.
0.031846227955655115 0.17450693382197285  0.
0.03167432272695022 0.26935530640249233  0.
0.02739035851603102 0.38115434698543205  0.
0.018585083036863168 0.5079825006737756  0.
0.0053394111163519095 0.6483459632336736  0.
-0.012350929491527695 0.8003097704156354  0.
-0.03404854953352335 0.962372124848073  0.
-0.05959831817129317 1.1327726116369292  0.
-0.08839722212481202 1.3100756965099127  0.
-0.12016431369472233 1.4926158717568336  0.
-0.15416569150809167 1.6789710264163504  0.
-0.19002142695109608 1.8676313132646711  0.
-0.22694065921853093 2.0571394187930974  0.
0.0 0.0  0.
-0.001302096660106811 0.04070198389849333  0.
-0.009980159801025979 0.1697232364707549  0.
-0.031098911556612437 0.3730564278271462  0.
-0.06662067333340858 0.6368643127191683  0.
-0.1162089657643836 0.9478053783852892  0.
-0.177678480841686 1.2931374268320592  0.
-0.2475739335544815 1.6606631948237216  0.
-0.32165593496406747 2.038579407075055  0.
0.0 0.0  0.
-0.010194842923063134 0.010605563023752679  0.
-0.022439489482968155 0.04166435626367277  0.
-0.03663676374328588 0.09415839344420572  0.
-0.05228449776666998 0.1672177686610475  0.
-0.06977476496565896 0.25895879518063947  0.
-0.09007680272491754 0.36704695773906876  0.
-0.1131149346381442 0.49031120406581524  0.
-0.1390695100786284 0.626951437706417  0.
-0.16760716591079164 0.775575556115076  0.
-0.19877658504962636 0.9343951627807636  0.
-0.23204286017631037 1.1020692131505299  0.
-0.26725042274489547 1.2769476921790712  0.
-0.3037016608054848 1.45768199409073  0.
-0.34112054131945985 1.6426840964321976  0.
-0.37874498224129344 1.830604297012191  0.
-0.41638967156951084 2.0200533542976227  0.
</DataArray>
<DataArray type="Float64" Name="Nodal_sigma_xx" NumberOfComponents="1" format="ascii" >
-0.06707318198934686 
-0.06707318198934686 
-0.05502287964061914 
-0.04297257729189141 
-0.014167907155745577 
0.01463676298040026 
0.030822439432678667 
0.047008115884957076 
0.06263481447234624 
0.0782615130597354 
0.08881885782128081 
0.09937620258282621 
0.10677413696700078 
0.11417207135117532 
0.12419287939059638 
0.13421368743001744 
0.13421368743001744 
-0.06707318198934686 
-0.05502287964061914 
-0.014167907155745577 
0.030822439432678667 
0.06263481447234624 
0.08881885782128081 
0.10677413696700078 
0.12419287939059638 
0.13421368743001744 
-0.06707318198934686 
-0.06707318198934686 
-0.05502287964061914 
-0.04297257729189141 
-0.014167907155745577 
0.01463676298040026 
0.030822439432678667 
0.047008115884957076 
0.06263481447234624 
0.0782615130597354 
0.08881885782128081 
0.09937620258282621 
0.10677413696700078 
0.11417207135117532 
0.12419287939059638 
0.13421368743001744 
0.13421368743001744 
</DataArray>
<DataArray type="Float64" Name="Nodal_sigma_yy" NumberOfComponents="1" format="ascii" >
-0.057889441306440304 
-0.057889441306440304 
-0.10126930720092686 
-0.14464917309541342 
-0.11802221607755829 
-0.09139525905970317 
-0.08014683564722579 
-0.06889841223474841 
-0.05426089545793891 
-0.03962337868112941 
-0.03037191426607134 
-0.021120449851013263 
-0.011796631845821172 
-0.0024728138406290815 
0.044913318151514926 
0.09229945014365894 
0.09229945014365894 
-0.057889441306440304 
-0.10126930720092686 
-0.11802221607755829 
-0.08014683564722579 
-0.05426089545793891 
-0.03037191426607134 
-0.011796631845821172 
0.044913318151514926 
0.09229945014365894 
-0.057889441306440304 
-0.057889441306440304 
-0.10126930720092686 
-0.14464917309541342 
-0.11802221607755829 
-0.09139525905970317 
-0.08014683564722579 
-0.06889841223474841 
-0.05426089545793891 
-0.03962337868112941 
-0.03037191426607134 
-0.021120449851013263 
-0.011796631845821172 
-0.0024728138406290815 
0.044913318151514926 
0.09229945014365894 
0.09229945014365894 
</DataArray>
<DataArray type="Float64" Name="Nodal_sigma_xy" NumberOfComponents="1" format="ascii" >
0.305136308893084 
0.305136308893084 
0.3310149195313865 
0.35689353016968894 
0.3484290063605969 
0.33996448255150485 
0.33891462279433204 
0.33786476303715923 
0.33500954288619844 
0.33215432273523765 
0.3301017324733756 
0.3280491422115135 
0.32670160726758046 
0.3253540723236475 
0.3239633152515424 
0.3225725581794374 
0.3225725581794374 
0.305136308893084 
0.3310149195313865 
0.3484290063605969 
0.33891462279433204 
0.33500954288619844 
0.3301017324733756 
0.32670160726758046 
0.3239633152515424 
0.3225725581794374 
0.305136308893084 
0.305136308893084 
0.3310149195313865 
0.35689353016968894 
0.3484290063605969 
0.33996448255150485 
0.33891462279433204 
0.33786476303715923 
0.33500954288619844 
0.33215432273523765 
0.3301017324733756 
0.3280491422115135 
0.32670160726758046 
0.3253540723236475 
0.3239633152515424 
0.3225725581794374 
0.3225725581794374 
</DataArray>
</PointData>
<CellData>
</CellData>
<Points>
<DataArray type="Float64" Name="Points" NumberOfComponents="3" format="ascii">
0.0 0.0 0.0
0.5 0.0 0.0
1.0 0.0 0.0
1.5 0.0 0.0
2.0 0.0 0.0
2.5 0.0 0.0
3.0 0.0 0.0
3.5 0.0 0.0
4.0 0.0 0.0
4.5 0.0 0.0
5.0 0.0 0.0
5.5 0.0 0.0
6.0 0.0 0.0
6.5 0.0 0.0
7.0 0.0 0.0
7.5 0.0 0.0
8.0 0.0 0.0
0.0 0.25 0.0
1.0 0.25 0.0
2.0 0.25 0.0
3.0 0.25 0.0
4.0 0.25 0.0
5.0 0.25 0.0
6.0 0.25 0.0
7.0 0.25 0.0
8.0 0.25 0.0
0.0 0.5 0.0
0.5 0.5 0.0
1.0 0.5 0.0
1.5 0.5 0.0
2.0 0.5 0.0
2.5 0.5 0.0
3.0 0.5 0.0
3.5 0.5 0.0
4.0 0.5 0.0
4.5 0.5 0.0
5.0 0.5 0.0
5.5 0.5 0.0
6.0 0.5 0.0
6.5 0.5 0.0
7.0 0.5 0.0
7.5 0.5 0.0
8.0 0.5 0.0
</DataArray>
</Points>
<Cells>
<DataArray type="Int64" Name="connectivity" format="ascii">
0 2 28 26 
2 4 30 28 
4 6 32 30 
6 8 34 32 
8 10 36 34 
10 12 38 36 
12 14 40 38 
14 16 42 40 
</DataArray>
<DataArray type="Int64" Name="offsets" format="ascii">
8
16
24
32
40
48
56
64
</DataArray>
<DataArray type="UInt8" Name="types" format="ascii" RangeMin="9" RangeMax="9">
9
9
9
9
9
9
9
9
</DataArray>
</Cells>
</Piece>
</UnstructuredGrid>
</VTKFile>
