<?xml version="1.0"?>
<VTKFile type="UnstructuredGrid" version="0.1" byte_order="LittleEndian" compressor="vtkZLibDataCompressor">
<UnstructuredGrid>
<Piece NumberOfPoints="43" NumberOfCells="8">
<PointData>
<DataArray type="Float64" Name="displacement" NumberOfComponents="3" format="ascii" >
0.0 0.0  0.
0.0062725388149678 0.007015339132678156  0.
0.013002569299911882 0.02784921771321424  0.
0.018948782362508357 0.06293323995992367  0.
0.02298856440594269 0.11186148154340385  0.
0.02497298966033942 0.17299861645302644  0.
0.025112437231513875 0.24523414106134322  0.
0.023148812679013208 0.32745011396383944  0.
0.019145815043430995 0.4186916642883427  0.
0.013033562172857657 0.5177789099873468  0.
0.005054393186412573 0.6237237168375909  0.
-0.004794156691801227 0.7354209746064233  0.
-0.016202764777876695 0.8519038008968332  0.
-0.02911531500304237 0.9720948325558946  0.
-0.04316489025446567 1.095016242679505  0.
-0.05823847936655683 1.2196658989703082  0.
-0.0739456874225312 1.3450272413679936  0.
0.0 0.0  0.
-0.0005403258366821058 0.0262100135101901  0.
-0.004156692575081138 0.10959131637452371  0.
-0.013001927625657952 0.24158061529396324  0.
-0.02795884191297736 0.4136476097887338  0.
-0.04894480817088146 0.6173951405429543  0.
-0.07507666924725111 0.8445886959862774  0.
-0.10490533624814119 1.087144940506678  0.
-0.13661940868505618 1.3370927116429092  0.
0.0 0.0  0.
-0.0065016584909012845 0.006859894178629009  0.
-0.014154553228043232 0.02705123335751509  0.
-0.022649340078981648 0.061194192811243164  0.
-0.03150268984881244 0.10881668182729701  0.
-0.04087360687465658 0.1686455977218956  0.
-0.05132347806230338 0.23931029650128263  0.
-0.06274889859919258 0.32001070215805427  0.
-0.07527306455018731 0.4096601025710296  0.
-0.08869956600044714 0.5073125122205777  0.
-0.10312029111766939 0.6118561627964324  0.
-0.11824858571034089 0.7223690011339389  0.
-0.1340789074335394 0.8377924723250668  0.
-0.15025081783608663 0.9571874804216849  0.
-0.16670527560543438 1.079509726839987  0.
-0.18306322105252845 1.2038127931437743  0.
-0.19932170058987791 1.3291874323819517  0.
</DataArray>
<DataArray type="Float64" Name="Nodal_sigma_xx" NumberOfComponents="1" format="ascii" >
-0.0279225493816671 
-0.0279225493816671 
-0.02320201813970356 
-0.01848148689774002 
-0.006685506159785444 
0.00511047457816913 
0.011792096436926 
0.01847371829568287 
0.025040056818277957 
0.03160639534087305 
0.036084811189587576 
0.04056322703830211 
0.043984801477642305 
0.04740637591698249 
0.05281635794229049 
0.05822633996759849 
0.05822633996759849 
-0.0279225493816671 
-0.02320201813970356 
-0.006685506159785444 
0.011792096436926 
0.025040056818277957 
0.036084811189587576 
0.043984801477642305 
0.05281635794229049 
0.05822633996759849 
-0.0279225493816671 
-0.0279225493816671 
-0.02320201813970356 
-0.01848148689774002 
-0.006685506159785444 
0.00511047457816913 
0.011792096436926 
0.01847371829568287 
0.025040056818277957 
0.03160639534087305 
0.036084811189587576 
0.04056322703830211 
0.043984801477642305 
0.04740637591698249 
0.05281635794229049 
0.05822633996759849 
0.05822633996759849 
</DataArray>
<DataArray type="Float64" Name="Nodal_sigma_yy" NumberOfComponents="1" format="ascii" >
-0.024099192167661456 
-0.024099192167661456 
-0.042297062824049006 
-0.06049493348043655 
-0.04952948606817528 
-0.03856403865591402 
-0.03394646260892996 
-0.0293288865619459 
-0.023173786763634123 
-0.017018686965322345 
-0.013083157708226337 
-0.00914762845113033 
-0.0041331290688819446 
0.0008813703133664424 
0.030874841217877 
0.06086831212238756 
0.06086831212238756 
-0.024099192167661456 
-0.042297062824049006 
-0.04952948606817528 
-0.03394646260892996 
-0.023173786763634123 
-0.013083157708226337 
-0.0041331290688819446 
0.030874841217877 
0.06086831212238756 
-0.024099192167661456 
-0.024099192167661456 
-0.042297062824049006 
-0.06049493348043655 
-0.04952948606817528 
-0.03856403865591402 
-0.03394646260892996 
-0.0293288865619459 
-0.023173786763634123 
-0.017018686965322345 
-0.013083157708226337 
-0.00914762845113033 
-0.0041331290688819446 
0.0008813703133664424 
0.030874841217877 
0.06086831212238756 
0.06086831212238756 
</DataArray>
<DataArray type="Float64" Name="Nodal_sigma_xy" NumberOfComponents="1" format="ascii" >
0.19027241361629096 
0.19027241361629096 
0.2073946701568095 
0.2245169266973281 
0.21971697844542146 
0.21491703019351482 
0.2152778727581916 
0.21563871532286835 
0.21471892576051915 
0.21379913619816995 
0.21326793072041667 
0.21273672524266335 
0.21241828768915533 
0.21209985013564733 
0.21147051190298188 
0.21084117367031646 
0.21084117367031646 
0.19027241361629096 
0.2073946701568095 
0.21971697844542146 
0.2152778727581916 
0.21471892576051915 
0.21326793072041667 
0.21241828768915533 
0.21147051190298188 
0.21084117367031646 
0.19027241361629096 
0.19027241361629096 
0.2073946701568095 
0.2245169266973281 
0.21971697844542146 
0.21491703019351482 
0.2152778727581916 
0.21563871532286835 
0.21471892576051915 
0.21379913619816995 
0.21326793072041667 
0.21273672524266335 
0.21241828768915533 
0.21209985013564733 
0.21147051190298188 
0.21084117367031646 
0.21084117367031646 
</DataArray>
</PointData>
<CellData>
</CellData>
<Points>
<DataArray type="Float64" Name="Points" NumberOfComponents="3" format="ascii">
0.0 0.0 0.0
0.5 0.0 0.0
1.0 0.0 0.0
1.5 0.0 0.0
2.0 0.0 0.0
2.5 0.0 0.0
3.0 0.0 0.0
3.5 0.0 0.0
4.0 0.0 0.0
4.5 0.0 0.0
5.0 0.0 0.0
5.5 0.0 0.0
6.0 0.0 0.0
6.5 0.0 0.0
7.0 0.0 0.0
7.5 0.0 0.0
8.0 0.0 0.0
0.0 0.25 0.0
1.0 0.25 0.0
2.0 0.25 0.0
3.0 0.25 0.0
4.0 0.25 0.0
5.0 0.25 0.0
6.0 0.25 0.0
7.0 0.25 0.0
8.0 0.25 0.0
0.0 0.5 0.0
0.5 0.5 0.0
1.0 0.5 0.0
1.5 0.5 0.0
2.0 0.5 0.0
2.5 0.5 0.0
3.0 0.5 0.0
3.5 0.5 0.0
4.0 0.5 0.0
4.5 0.5 0.0
5.0 0.5 0.0
5.5 0.5 0.0
6.0 0.5 0.0
6.5 0.5 0.0
7.0 0.5 0.0
7.5 0.5 0.0
8.0 0.5 0.0
</DataArray>
</Points>
<Cells>
<DataArray type="Int64" Name="connectivity" format="ascii">
0 2 28 26 
2 4 30 28 
4 6 32 30 
6 8 34 32 
8 10 36 34 
10 12 38 36 
12 14 40 38 
14 16 42 40 
</DataArray>
<DataArray type="Int64" Name="offsets" format="ascii">
8
16
24
32
40
48
56
64
</DataArray>
<DataArray type="UInt8" Name="types" format="ascii" RangeMin="9" RangeMax="9">
9
9
9
9
9
9
9
9
</DataArray>
</Cells>
</Piece>
</UnstructuredGrid>
</VTKFile>
