<?xml version="1.0"?>
<VTKFile type="UnstructuredGrid" version="0.1" byte_order="LittleEndian" compressor="vtkZLibDataCompressor">
<UnstructuredGrid>
<Piece NumberOfPoints="43" NumberOfCells="8">
<PointData>
<DataArray type="Float64" Name="displacement" NumberOfComponents="3" format="ascii" >
0.0 0.0  0.
0.009104276641152308 0.010337603351306854  0.
0.018617196982726635 0.041034981882790304  0.
0.026404512937154494 0.09260927509344934  0.
0.03060838994735298 0.1643971008290833  0.
0.030938810568504657 0.2538397373068901  0.
0.027579108412800132 0.3593145790007038  0.
0.020142512663176994 0.47903891514045643  0.
0.008706947646391294 0.6116076821125077  0.
-0.006749044768620253 0.7552116212712169  0.
-0.0258227770739916 0.9084302943509537  0.
-0.048392910982307344 1.0696092350309978  0.
-0.07390916300164102 1.2373843209817943  0.
-0.10213588511669038 1.4101820758240824  0.
-0.13240485727256082 1.5866456462893574  0.
-0.16438795348181826 1.7653421733335073  0.
-0.19736563265663956 1.9448775087886685  0.
0.0 0.0  0.
-0.0011572510893576539 0.03836888781595068  0.
-0.008876057711600275 0.16007623128694615  0.
-0.027678043403921434 0.35204211170083555  0.
-0.059334139681809846 0.6013243794194778  0.
-0.10356717427624873 0.8953960894945004  0.
-0.15844332729880983 1.222234075558663  0.
-0.22088428361067355 1.5702750696452523  0.
-0.2871005478074848 1.928289768305906  0.
0.0 0.0  0.
-0.009595523527113604 0.010004323479577673  0.
-0.021084551071450415 0.039328231479812854  0.
-0.03431805818162062 0.08889600532407751  0.
-0.04878624791857367 0.15791079311179332  0.
-0.06483691205091732 0.24458429065306514  0.
-0.0833712135768608 0.3467488038426466  0.
-0.10430519974788162 0.4632912200824159  0.
-0.12781225126846923 0.592532413375789  0.
-0.15358221207165998 0.7331490287054644  0.
-0.18167633696943747 0.88346408656511  0.
-0.21160322674262966 1.042199411867754  0.
-0.24323866636844504 1.2077991335088933  0.
-0.27594451956620397 1.3789742699232288  0.
-0.3094878525345841 1.5542206728191148  0.
-0.34317468034951437 1.7322460884576734  0.
-0.3768570230305422 1.9117353059980373  0.
</DataArray>
<DataArray type="Float64" Name="Nodal_sigma_xx" NumberOfComponents="1" format="ascii" >
-0.05964686657569847 
-0.05964686657569847 
-0.049048590062438197 
-0.038450313549177925 
-0.012911447802077584 
0.012627417945022756 
0.02700037487196965 
0.04137333179891654 
0.05529434892757064 
0.06921536605622473 
0.07863991002923083 
0.08806445400223693 
0.09474168823021001 
0.1014189224581831 
0.11063486465843102 
0.11985080685867894 
0.11985080685867894 
-0.05964686657569847 
-0.049048590062438197 
-0.012911447802077584 
0.02700037487196965 
0.05529434892757064 
0.07863991002923083 
0.09474168823021001 
0.11063486465843102 
0.11985080685867894 
-0.05964686657569847 
-0.05964686657569847 
-0.049048590062438197 
-0.038450313549177925 
-0.012911447802077584 
0.012627417945022756 
0.02700037487196965 
0.04137333179891654 
0.05529434892757064 
0.06921536605622473 
0.07863991002923083 
0.08806445400223693 
0.09474168823021001 
0.1014189224581831 
0.11063486465843102 
0.11985080685867894 
0.11985080685867894 
</DataArray>
<DataArray type="Float64" Name="Nodal_sigma_yy" NumberOfComponents="1" format="ascii" >
-0.05147970356279213 
-0.05147970356279213 
-0.09011213713347115 
-0.12874457070415016 
-0.10511214572138772 
-0.08147972073862528 
-0.07150110407646951 
-0.06152248741431372 
-0.04848282907800251 
-0.035443170741691295 
-0.027183991627345083 
-0.018924812512998872 
-0.010350743820362523 
-0.0017766751277261744 
0.042801423384741535 
0.08737952189720924 
0.08737952189720924 
-0.05147970356279213 
-0.09011213713347115 
-0.10511214572138772 
-0.07150110407646951 
-0.04848282907800251 
-0.027183991627345083 
-0.010350743820362523 
0.042801423384741535 
0.08737952189720924 
-0.05147970356279213 
-0.05147970356279213 
-0.09011213713347115 
-0.12874457070415016 
-0.10511214572138772 
-0.08147972073862528 
-0.07150110407646951 
-0.06152248741431372 
-0.04848282907800251 
-0.035443170741691295 
-0.027183991627345083 
-0.018924812512998872 
-0.010350743820362523 
-0.0017766751277261744 
0.042801423384741535 
0.08737952189720924 
0.08737952189720924 
</DataArray>
<DataArray type="Float64" Name="Nodal_sigma_xy" NumberOfComponents="1" format="ascii" >
0.2859477473663434 
0.2859477473663434 
0.3104731327088665 
0.33499851805138964 
0.32720377254638355 
0.31940902704137747 
0.3187093348090085 
0.3180096425766395 
0.31557341398367167 
0.3131371853907039 
0.31142012252205464 
0.30970305965340533 
0.30858279710647396 
0.30746253455954253 
0.30622273860867816 
0.3049829426578138 
0.3049829426578138 
0.2859477473663434 
0.3104731327088665 
0.32720377254638355 
0.3187093348090085 
0.31557341398367167 
0.31142012252205464 
0.30858279710647396 
0.30622273860867816 
0.3049829426578138 
0.2859477473663434 
0.2859477473663434 
0.3104731327088665 
0.33499851805138964 
0.32720377254638355 
0.31940902704137747 
0.3187093348090085 
0.3180096425766395 
0.31557341398367167 
0.3131371853907039 
0.31142012252205464 
0.30970305965340533 
0.30858279710647396 
0.30746253455954253 
0.30622273860867816 
0.3049829426578138 
0.3049829426578138 
</DataArray>
</PointData>
<CellData>
</CellData>
<Points>
<DataArray type="Float64" Name="Points" NumberOfComponents="3" format="ascii">
0.0 0.0 0.0
0.5 0.0 0.0
1.0 0.0 0.0
1.5 0.0 0.0
2.0 0.0 0.0
2.5 0.0 0.0
3.0 0.0 0.0
3.5 0.0 0.0
4.0 0.0 0.0
4.5 0.0 0.0
5.0 0.0 0.0
5.5 0.0 0.0
6.0 0.0 0.0
6.5 0.0 0.0
7.0 0.0 0.0
7.5 0.0 0.0
8.0 0.0 0.0
0.0 0.25 0.0
1.0 0.25 0.0
2.0 0.25 0.0
3.0 0.25 0.0
4.0 0.25 0.0
5.0 0.25 0.0
6.0 0.25 0.0
7.0 0.25 0.0
8.0 0.25 0.0
0.0 0.5 0.0
0.5 0.5 0.0
1.0 0.5 0.0
1.5 0.5 0.0
2.0 0.5 0.0
2.5 0.5 0.0
3.0 0.5 0.0
3.5 0.5 0.0
4.0 0.5 0.0
4.5 0.5 0.0
5.0 0.5 0.0
5.5 0.5 0.0
6.0 0.5 0.0
6.5 0.5 0.0
7.0 0.5 0.0
7.5 0.5 0.0
8.0 0.5 0.0
</DataArray>
</Points>
<Cells>
<DataArray type="Int64" Name="connectivity" format="ascii">
0 2 28 26 
2 4 30 28 
4 6 32 30 
6 8 34 32 
8 10 36 34 
10 12 38 36 
12 14 40 38 
14 16 42 40 
</DataArray>
<DataArray type="Int64" Name="offsets" format="ascii">
8
16
24
32
40
48
56
64
</DataArray>
<DataArray type="UInt8" Name="types" format="ascii" RangeMin="9" RangeMax="9">
9
9
9
9
9
9
9
9
</DataArray>
</Cells>
</Piece>
</UnstructuredGrid>
</VTKFile>
