<?xml version="1.0"?>
<VTKFile type="UnstructuredGrid" version="0.1" byte_order="LittleEndian" compressor="vtkZLibDataCompressor">
<UnstructuredGrid>
<Piece NumberOfPoints="43" NumberOfCells="8">
<PointData>
<DataArray type="Float64" Name="displacement" NumberOfComponents="3" format="ascii" >
0.0 0.0  0.
0.0013038231927143796 0.0014227008105883452  0.
0.002761233485918839 0.005641052611822239  0.
0.004194633673073329 0.012765307911675872  0.
0.005426853570836114 0.02271807652576553  0.
0.006449806652498599 0.0351998407016843  0.
0.00733753751577884 0.04997232878166123  0.
0.00804606888742962 0.06683843317471198  0.
0.008594296650548654 0.08559860352384689  0.
0.008953938657859003 0.10603218943140424  0.
0.009163650482444214 0.12792919188602545  0.
0.009196413844790871 0.15107677399049246  0.
0.009090972582767656 0.1752674932344425  0.
0.00882285177465538 0.20028733314788297  0.
0.008432518109146716 0.22592433599519615  0.
0.007902658060414887 0.25197408243003566  0.
0.007272439157488135 0.2782138096769114  0.
0.0 0.0  0.
-2.269320914751193e-05 0.005369792581239139  0.
-0.00017507807176419597 0.022498435567539308  0.
-0.0005492754177246076 0.049702080235780155  0.
-0.0011847214848956671 0.08529440422221288  0.
-0.0020801139725195737 0.12759089580948585  0.
-0.0031994471835459213 0.17490829858919468  0.
-0.004482574917316602 0.22556467079350037  0.
-0.00585264986449411 0.27787913657118635  0.
0.0 0.0  0.
-0.0013134370382634193 0.001416178626379957  0.
-0.002809614948447764 0.0056074933114993696  0.
-0.004350286131808505 0.012692055140188566  0.
-0.005785519985707399 0.022589538931965858  0.
-0.007120591263685635 0.03501573163861446  0.
-0.00844493536403993 0.049721208492215764  0.
-0.009721657177429583 0.06652241020935963  0.
-0.010972792658994073 0.08521408842294409  0.
-0.012165126100964077 0.10558568492122475  0.
-0.013331476283735362 0.12742183990591346  0.
-0.014433197804526485 0.15051766698153213  0.
-0.015495881866347797 0.17466202574254955  0.
-0.016476496227597504 0.19964640079863735  0.
-0.017399063167467452 0.22525815754057554  0.
-0.018224499186813018 0.25128820669602975  0.
-0.01898743385021742 0.2775542188428807  0.
</DataArray>
<DataArray type="Float64" Name="Nodal_sigma_xx" NumberOfComponents="1" format="ascii" >
-0.0011761823801547974 
-0.0011761823801547974 
-0.000987293776554833 
-0.0007984051729548685 
-0.0003083669217889397 
0.00018167132937698917 
0.0004601230146053576 
0.000738574699833726 
0.0010193677309960408 
0.0013001607621583556 
0.0014845793884714568 
0.001668998014784558 
0.0019201638389594413 
0.002171329663134325 
0.0029249885042451134 
0.003678647345355902 
0.003678647345355902 
-0.0011761823801547974 
-0.000987293776554833 
-0.0003083669217889397 
0.0004601230146053576 
0.0010193677309960408 
0.0014845793884714568 
0.0019201638389594413 
0.0029249885042451134 
0.003678647345355902 
-0.0011761823801547974 
-0.0011761823801547974 
-0.000987293776554833 
-0.0007984051729548685 
-0.0003083669217889397 
0.00018167132937698917 
0.0004601230146053576 
0.000738574699833726 
0.0010193677309960408 
0.0013001607621583556 
0.0014845793884714568 
0.001668998014784558 
0.0019201638389594413 
0.002171329663134325 
0.0029249885042451134 
0.003678647345355902 
0.003678647345355902 
</DataArray>
<DataArray type="Float64" Name="Nodal_sigma_yy" NumberOfComponents="1" format="ascii" >
-0.0010150775212820946 
-0.0010150775212820946 
-0.0017859980069536334 
-0.002556918492625172 
-0.002099281912917209 
-0.001641645333209246 
-0.0014506999068979714 
-0.0012597544805866968 
-0.0009920859687785849 
-0.0007244174569704732 
-0.0005517390053814116 
-0.00037906055379235005 
0.00030535599378909967 
0.0009897725413705494 
0.006872002117225782 
0.012754231693081016 
0.012754231693081016 
-0.0010150775212820946 
-0.0017859980069536334 
-0.002099281912917209 
-0.0014506999068979714 
-0.0009920859687785849 
-0.0005517390053814116 
0.00030535599378909967 
0.006872002117225782 
0.012754231693081016 
-0.0010150775212820946 
-0.0010150775212820946 
-0.0017859980069536334 
-0.002556918492625172 
-0.002099281912917209 
-0.001641645333209246 
-0.0014506999068979714 
-0.0012597544805866968 
-0.0009920859687785849 
-0.0007244174569704732 
-0.0005517390053814116 
-0.00037906055379235005 
0.00030535599378909967 
0.0009897725413705494 
0.006872002117225782 
0.012754231693081016 
0.012754231693081016 
</DataArray>
<DataArray type="Float64" Name="Nodal_sigma_xy" NumberOfComponents="1" format="ascii" >
0.03797365678984676 
0.03797365678984676 
0.04154204765836611 
0.045110438526885455 
0.04421395742043531 
0.043317476313985165 
0.04353415294007351 
0.04375082956616185 
0.04369072666253128 
0.043630623758900706 
0.04363420856841253 
0.04363779337792436 
0.04365239636777047 
0.04366699935761658 
0.04357903228641263 
0.04349106521520868 
0.04349106521520868 
0.03797365678984676 
0.04154204765836611 
0.04421395742043531 
0.04353415294007351 
0.04369072666253128 
0.04363420856841253 
0.04365239636777047 
0.04357903228641263 
0.04349106521520868 
0.03797365678984676 
0.03797365678984676 
0.04154204765836611 
0.045110438526885455 
0.04421395742043531 
0.043317476313985165 
0.04353415294007351 
0.04375082956616185 
0.04369072666253128 
0.043630623758900706 
0.04363420856841253 
0.04363779337792436 
0.04365239636777047 
0.04366699935761658 
0.04357903228641263 
0.04349106521520868 
0.04349106521520868 
</DataArray>
</PointData>
<CellData>
</CellData>
<Points>
<DataArray type="Float64" Name="Points" NumberOfComponents="3" format="ascii">
0.0 0.0 0.0
0.5 0.0 0.0
1.0 0.0 0.0
1.5 0.0 0.0
2.0 0.0 0.0
2.5 0.0 0.0
3.0 0.0 0.0
3.5 0.0 0.0
4.0 0.0 0.0
4.5 0.0 0.0
5.0 0.0 0.0
5.5 0.0 0.0
6.0 0.0 0.0
6.5 0.0 0.0
7.0 0.0 0.0
7.5 0.0 0.0
8.0 0.0 0.0
0.0 0.25 0.0
1.0 0.25 0.0
2.0 0.25 0.0
3.0 0.25 0.0
4.0 0.25 0.0
5.0 0.25 0.0
6.0 0.25 0.0
7.0 0.25 0.0
8.0 0.25 0.0
0.0 0.5 0.0
0.5 0.5 0.0
1.0 0.5 0.0
1.5 0.5 0.0
2.0 0.5 0.0
2.5 0.5 0.0
3.0 0.5 0.0
3.5 0.5 0.0
4.0 0.5 0.0
4.5 0.5 0.0
5.0 0.5 0.0
5.5 0.5 0.0
6.0 0.5 0.0
6.5 0.5 0.0
7.0 0.5 0.0
7.5 0.5 0.0
8.0 0.5 0.0
</DataArray>
</Points>
<Cells>
<DataArray type="Int64" Name="connectivity" format="ascii">
0 2 28 26 
2 4 30 28 
4 6 32 30 
6 8 34 32 
8 10 36 34 
10 12 38 36 
12 14 40 38 
14 16 42 40 
</DataArray>
<DataArray type="Int64" Name="offsets" format="ascii">
8
16
24
32
40
48
56
64
</DataArray>
<DataArray type="UInt8" Name="types" format="ascii" RangeMin="9" RangeMax="9">
9
9
9
9
9
9
9
9
</DataArray>
</Cells>
</Piece>
</UnstructuredGrid>
</VTKFile>
