<?xml version="1.0"?>
<VTKFile type="UnstructuredGrid" version="0.1" byte_order="LittleEndian" compressor="vtkZLibDataCompressor">
<UnstructuredGrid>
<Piece NumberOfPoints="43" NumberOfCells="8">
<PointData>
<DataArray type="Float64" Name="displacement" NumberOfComponents="3" format="ascii" >
0.0 0.0  0.
0.004465254478901202 0.004948108743609065  0.
0.009331832437761764 0.019637962479966693  0.
0.01381796718763765 0.044405710804533094  0.
0.017195427447575025 0.07897670411506032  0.
0.019384870103033334 0.12224024718042793  0.
0.020574535004790437 0.17340147781666027  0.
0.02058982739489941 0.23171123490261242  0.
0.019482620255064326 0.29649143563566  0.
0.017183011003790057 0.3669330183236117  0.
0.013848622237724208 0.44232747389045063  0.
0.009442115767514523 0.5219073744985837  0.
0.004151829425530895 0.6049747126661174  0.
-0.002029014603409066 0.6907713870805757  0.
-0.008883330452677102 0.7785869081379251  0.
-0.016382285802368217 0.8677081150804364  0.
-0.024299046599726294 0.9573923692988755  0.
0.0 0.0  0.
-0.00027098586941610894 0.018558916127866535  0.
-0.0020875610531059584 0.07767807967076044  0.
-0.006539177109279 0.17141453957513655  0.
-0.01408194928627461 0.29383154870288675  0.
-0.024686134886971852 0.4390406270723733  0.
-0.037914465619928284 0.6012111328820933  0.
-0.053039369963408516 0.7745667323748342  0.
-0.06914415296696144 0.9533719647441691  0.
0.0 0.0  0.
-0.004580108768973935 0.004870187044913111  0.
-0.009909572341554467 0.019237499545728058  0.
-0.01567520869001742 0.043532306410742  0.
-0.021471680460647374 0.07744587366510362  0.
-0.027376490892982913 0.12004972795693529  0.
-0.03375764492313919 0.17041722051721137  0.
-0.040521355413018385 0.2279597919769562  0.
-0.047752957629487794 0.2919323036193686  0.
-0.05532122295042306 0.361644613225143  0.
-0.06331070414259168 0.4363252702792712  0.
-0.07154239545141237 0.5153003472386003  0.
-0.08004702392609547 0.5978255555993301  0.
-0.08860647147506513 0.6832129571935273  0.
-0.09722467151770685 0.7707210654957173  0.
-0.10567992655573699 0.8596564669914568  0.
-0.11401495010376031 0.9493763458065088  0.
</DataArray>
<DataArray type="Float64" Name="Nodal_sigma_xx" NumberOfComponents="1" format="ascii" >
-0.014022044088381393 
-0.014022044088381393 
-0.011707882348773808 
-0.009393720609166224 
-0.003508534930968082 
0.0023766507472300605 
0.005718909534414587 
0.009061168321599113 
0.012371034723155766 
0.015680901124712418 
0.017938869334232707 
0.020196837543752996 
0.02206885102754199 
0.023940864511330987 
0.027341137038815272 
0.030741409566299553 
0.030741409566299553 
-0.014022044088381393 
-0.011707882348773808 
-0.003508534930968082 
0.005718909534414587 
0.012371034723155766 
0.017938869334232707 
0.02206885102754199 
0.027341137038815272 
0.030741409566299553 
-0.014022044088381393 
-0.014022044088381393 
-0.011707882348773808 
-0.009393720609166224 
-0.003508534930968082 
0.0023766507472300605 
0.005718909534414587 
0.009061168321599113 
0.012371034723155766 
0.015680901124712418 
0.017938869334232707 
0.020196837543752996 
0.02206885102754199 
0.023940864511330987 
0.027341137038815272 
0.030741409566299553 
0.030741409566299553 
</DataArray>
<DataArray type="Float64" Name="Nodal_sigma_yy" NumberOfComponents="1" format="ascii" >
-0.012102017149465434 
-0.012102017149465434 
-0.02126626936469806 
-0.03043052157993069 
-0.024947976340345415 
-0.01946543110076014 
-0.017161202721542562 
-0.014856974342324986 
-0.011749387865259076 
-0.008641801388193164 
-0.0066459429254925925 
-0.004650084462792021 
-0.001514737474820072 
0.0016206095131518772 
0.022575693843210728 
0.04353077817326958 
0.04353077817326958 
-0.012102017149465434 
-0.02126626936469806 
-0.024947976340345415 
-0.017161202721542562 
-0.011749387865259076 
-0.0066459429254925925 
-0.001514737474820072 
0.022575693843210728 
0.04353077817326958 
-0.012102017149465434 
-0.012102017149465434 
-0.02126626936469806 
-0.03043052157993069 
-0.024947976340345415 
-0.01946543110076014 
-0.017161202721542562 
-0.014856974342324986 
-0.011749387865259076 
-0.008641801388193164 
-0.0066459429254925925 
-0.004650084462792021 
-0.001514737474820072 
0.0016206095131518772 
0.022575693843210728 
0.04353077817326958 
0.04353077817326958 
</DataArray>
<DataArray type="Float64" Name="Nodal_sigma_xy" NumberOfComponents="1" format="ascii" >
0.13306400731930682 
0.13306400731930682 
0.14529822189242603 
0.15753243646554527 
0.15429128687190508 
0.1510501372782649 
0.151563013099573 
0.1520758889208811 
0.15165523125118302 
0.1512345735814849 
0.15105972784048208 
0.15088488209947926 
0.150801568837795 
0.15071825557611074 
0.15034428253824045 
0.14997030950037019 
0.14997030950037019 
0.13306400731930682 
0.14529822189242603 
0.15429128687190508 
0.151563013099573 
0.15165523125118302 
0.15105972784048208 
0.150801568837795 
0.15034428253824045 
0.14997030950037019 
0.13306400731930682 
0.13306400731930682 
0.14529822189242603 
0.15753243646554527 
0.15429128687190508 
0.1510501372782649 
0.151563013099573 
0.1520758889208811 
0.15165523125118302 
0.1512345735814849 
0.15105972784048208 
0.15088488209947926 
0.150801568837795 
0.15071825557611074 
0.15034428253824045 
0.14997030950037019 
0.14997030950037019 
</DataArray>
</PointData>
<CellData>
</CellData>
<Points>
<DataArray type="Float64" Name="Points" NumberOfComponents="3" format="ascii">
0.0 0.0 0.0
0.5 0.0 0.0
1.0 0.0 0.0
1.5 0.0 0.0
2.0 0.0 0.0
2.5 0.0 0.0
3.0 0.0 0.0
3.5 0.0 0.0
4.0 0.0 0.0
4.5 0.0 0.0
5.0 0.0 0.0
5.5 0.0 0.0
6.0 0.0 0.0
6.5 0.0 0.0
7.0 0.0 0.0
7.5 0.0 0.0
8.0 0.0 0.0
0.0 0.25 0.0
1.0 0.25 0.0
2.0 0.25 0.0
3.0 0.25 0.0
4.0 0.25 0.0
5.0 0.25 0.0
6.0 0.25 0.0
7.0 0.25 0.0
8.0 0.25 0.0
0.0 0.5 0.0
0.5 0.5 0.0
1.0 0.5 0.0
1.5 0.5 0.0
2.0 0.5 0.0
2.5 0.5 0.0
3.0 0.5 0.0
3.5 0.5 0.0
4.0 0.5 0.0
4.5 0.5 0.0
5.0 0.5 0.0
5.5 0.5 0.0
6.0 0.5 0.0
6.5 0.5 0.0
7.0 0.5 0.0
7.5 0.5 0.0
8.0 0.5 0.0
</DataArray>
</Points>
<Cells>
<DataArray type="Int64" Name="connectivity" format="ascii">
0 2 28 26 
2 4 30 28 
4 6 32 30 
6 8 34 32 
8 10 36 34 
10 12 38 36 
12 14 40 38 
14 16 42 40 
</DataArray>
<DataArray type="Int64" Name="offsets" format="ascii">
8
16
24
32
40
48
56
64
</DataArray>
<DataArray type="UInt8" Name="types" format="ascii" RangeMin="9" RangeMax="9">
9
9
9
9
9
9
9
9
</DataArray>
</Cells>
</Piece>
</UnstructuredGrid>
</VTKFile>
