<?xml version="1.0"?>
<VTKFile type="UnstructuredGrid" version="0.1" byte_order="LittleEndian" compressor="vtkZLibDataCompressor">
<UnstructuredGrid>
<Piece NumberOfPoints="43" NumberOfCells="8">
<PointData>
<DataArray type="Float64" Name="displacement" NumberOfComponents="3" format="ascii" >
0.0 0.0  0.
0.0019486086331139464 0.0021328161569044587  0.
0.004115998160111926 0.008458747829885  0.
0.006221520891870574 0.019139274804045005  0.
0.007989730146478084 0.03405854301545445  0.
0.009403757789778821 0.05276174182548783  0.
0.010568595293784207 0.07489523487177732  0.
0.011416071483650635 0.10015820055160465  0.
0.011973274466277316 0.1282532434762258  0.
0.012199986187899579 0.15884590589522518  0.
0.012156217245813828 0.1916233703467713  0.
0.011806177761951175 0.22626394098416514  0.
0.011212713785288658 0.26245849423891016  0.
0.010345853791145764 0.29988453447477675  0.
0.009273080641448968 0.33822621574087797  0.
0.007976202969170863 0.37717631224560016  0.
0.006522091283683327 0.41640310923793245  0.
0.0 0.0  0.
-5.087303152255034e-05 0.008040149320991286  0.
-0.0003924038952902694 0.033682096989368866  0.
-0.0012308239763028721 0.07439761143810993  0.
-0.0026541413351033115 0.1276554568231639  0.
-0.0046590052536808965 0.19092916169256438  0.
-0.007164514265432017 0.26169677939005526  0.
-0.01003499033584306 0.33744078889168905  0.
-0.013097754771723823 0.41564713234831746  0.
0.0 0.0  0.
-0.0019701619364387657 0.0021181939282679707  0.
-0.004224458487104634 0.008383522928681263  0.
-0.006570419462267145 0.018975093863447257  0.
-0.008793602576216744 0.03377049816717752  0.
-0.010907018582074901 0.052349222762471774  0.
-0.013050055094746152 0.07433266461746336  0.
-0.01517030690596625 0.09945034600793229  0.
-0.0173017944721038 0.12739212094144184  0.
-0.019393186678873138 0.15784612048745486  0.
-0.02149128365356918 0.19048754109716415  0.
-0.023534049269596704 0.22501249643129667  0.
-0.02555484257985471 0.26110334375873884  0.
-0.027482930183946166 0.298450412517249  0.
-0.02934737726837737 0.3367343030793298  0.
-0.031081848072905413 0.37564399706864515  0.
-0.03273150897691327 0.41490490070217223  0.
</DataArray>
<DataArray type="Float64" Name="Nodal_sigma_xx" NumberOfComponents="1" format="ascii" >
-0.002636020239531837 
-0.002636020239531837 
-0.002210979313033502 
-0.0017859383865351673 
-0.0006865571943219548 
0.0004128239978912577 
0.0010379316333721553 
0.0016630392688530527 
0.0022894927359872934 
0.0029159462031215343 
0.0033356336180140576 
0.0037553210329065814 
0.004221263349952752 
0.004687205666998922 
0.005887481696626753 
0.007087757726254584 
0.007087757726254584 
-0.002636020239531837 
-0.002210979313033502 
-0.0006865571943219548 
0.0010379316333721553 
0.0022894927359872934 
0.0033356336180140576 
0.004221263349952752 
0.005887481696626753 
0.007087757726254584 
-0.002636020239531837 
-0.002636020239531837 
-0.002210979313033502 
-0.0017859383865351673 
-0.0006865571943219548 
0.0004128239978912577 
0.0010379316333721553 
0.0016630392688530527 
0.0022894927359872934 
0.0029159462031215343 
0.0033356336180140576 
0.0037553210329065814 
0.004221263349952752 
0.004687205666998922 
0.005887481696626753 
0.007087757726254584 
0.007087757726254584 
</DataArray>
<DataArray type="Float64" Name="Nodal_sigma_yy" NumberOfComponents="1" format="ascii" >
-0.002274998330876897 
-0.002274998330876897 
-0.004002082486729246 
-0.0057291666425815955 
-0.004702915429646883 
-0.0036766642167121713 
-0.003247243324501723 
-0.002817822432291275 
-0.002224874051395675 
-0.0016319256705000752 
-0.001249561827001466 
-0.0008671979835028567 
0.00022701180692533498 
0.0013212215973535267 
0.010189393888710055 
0.019057566180066585 
0.019057566180066585 
-0.002274998330876897 
-0.004002082486729246 
-0.004702915429646883 
-0.003247243324501723 
-0.002224874051395675 
-0.001249561827001466 
0.00022701180692533498 
0.010189393888710055 
0.019057566180066585 
-0.002274998330876897 
-0.002274998330876897 
-0.004002082486729246 
-0.0057291666425815955 
-0.004702915429646883 
-0.0036766642167121713 
-0.003247243324501723 
-0.002817822432291275 
-0.002224874051395675 
-0.0016319256705000752 
-0.001249561827001466 
-0.0008671979835028567 
0.00022701180692533498 
0.0013212215973535267 
0.010189393888710055 
0.019057566180066585 
0.019057566180066585 
</DataArray>
<DataArray type="Float64" Name="Nodal_sigma_xy" NumberOfComponents="1" format="ascii" >
0.05697122239967811 
0.05697122239967811 
0.062309405341695115 
0.06764758828371212 
0.06629832258686447 
0.06494905689001683 
0.06526191624765496 
0.06557477560529307 
0.06547430188807357 
0.06537382817085406 
0.06536995695500192 
0.06536608573914976 
0.06538129627716979 
0.06539650681518981 
0.06526119093810928 
0.06512587506102877 
0.06512587506102877 
0.05697122239967811 
0.062309405341695115 
0.06629832258686447 
0.06526191624765496 
0.06547430188807357 
0.06536995695500192 
0.06538129627716979 
0.06526119093810928 
0.06512587506102877 
0.05697122239967811 
0.05697122239967811 
0.062309405341695115 
0.06764758828371212 
0.06629832258686447 
0.06494905689001683 
0.06526191624765496 
0.06557477560529307 
0.06547430188807357 
0.06537382817085406 
0.06536995695500192 
0.06536608573914976 
0.06538129627716979 
0.06539650681518981 
0.06526119093810928 
0.06512587506102877 
0.06512587506102877 
</DataArray>
</PointData>
<CellData>
</CellData>
<Points>
<DataArray type="Float64" Name="Points" NumberOfComponents="3" format="ascii">
0.0 0.0 0.0
0.5 0.0 0.0
1.0 0.0 0.0
1.5 0.0 0.0
2.0 0.0 0.0
2.5 0.0 0.0
3.0 0.0 0.0
3.5 0.0 0.0
4.0 0.0 0.0
4.5 0.0 0.0
5.0 0.0 0.0
5.5 0.0 0.0
6.0 0.0 0.0
6.5 0.0 0.0
7.0 0.0 0.0
7.5 0.0 0.0
8.0 0.0 0.0
0.0 0.25 0.0
1.0 0.25 0.0
2.0 0.25 0.0
3.0 0.25 0.0
4.0 0.25 0.0
5.0 0.25 0.0
6.0 0.25 0.0
7.0 0.25 0.0
8.0 0.25 0.0
0.0 0.5 0.0
0.5 0.5 0.0
1.0 0.5 0.0
1.5 0.5 0.0
2.0 0.5 0.0
2.5 0.5 0.0
3.0 0.5 0.0
3.5 0.5 0.0
4.0 0.5 0.0
4.5 0.5 0.0
5.0 0.5 0.0
5.5 0.5 0.0
6.0 0.5 0.0
6.5 0.5 0.0
7.0 0.5 0.0
7.5 0.5 0.0
8.0 0.5 0.0
</DataArray>
</Points>
<Cells>
<DataArray type="Int64" Name="connectivity" format="ascii">
0 2 28 26 
2 4 30 28 
4 6 32 30 
6 8 34 32 
8 10 36 34 
10 12 38 36 
12 14 40 38 
14 16 42 40 
</DataArray>
<DataArray type="Int64" Name="offsets" format="ascii">
8
16
24
32
40
48
56
64
</DataArray>
<DataArray type="UInt8" Name="types" format="ascii" RangeMin="9" RangeMax="9">
9
9
9
9
9
9
9
9
</DataArray>
</Cells>
</Piece>
</UnstructuredGrid>
</VTKFile>
