<?xml version="1.0"?>
<VTKFile type="UnstructuredGrid" version="0.1" byte_order="LittleEndian" compressor="vtkZLibDataCompressor">
<UnstructuredGrid>
<Piece NumberOfPoints="43" NumberOfCells="8">
<PointData>
<DataArray type="Float64" Name="displacement" NumberOfComponents="3" format="ascii" >
0.0 0.0  0.
0.007999918132543025 0.009029340170964899  0.
0.01644821785446411 0.03584524692721445  0.
0.023584336257463423 0.08094184459704791  0.
0.027854138487007244 0.14376539972101635  0.
0.029026475346754302 0.22213281655750464  0.
0.02730387756249871 0.3146251937620646  0.
0.02234829218743205 0.41973218742862267  0.
0.014232133455453416 0.5362274303194638  0.
0.002907089668844745 0.6625538442984875  0.
-0.011290996994962799 0.7974588162587474  0.
-0.028299674371706437 0.9395042691415887  0.
-0.04767002642746874 1.0874770133666225  0.
-0.0692482586743097 1.239995314624767  0.
-0.09249284729799236 1.3958434617404267  0.
-0.11717132741412405 1.5537521005794561  0.
-0.14270226946308465 1.712465793779916  0.
0.0 0.0  0.
-0.0008877653895051569 0.03360164783724925  0.
-0.006817907332652502 0.14032147789186084  0.
-0.021288506497976537 0.3089100958435583  0.
-0.0456973216864117 0.528203349250987  0.
-0.07986405974337722 0.7873161135777633  0.
-0.12231823849282786 1.0757036972313343  0.
-0.17068871034198305 1.3831345546602236  0.
-0.22203771602973382 1.6996065105973552  0.
0.0 0.0  0.
-0.00837659391997826 0.008773787526035371  0.
-0.01834098073316454 0.03453516830659268  0.
-0.029659100132377894 0.0780895183552627  0.
-0.041817940209617 0.13877800080384298  0.
-0.05508275897027943 0.21501032866596034  0.
-0.0702179153065556 0.3049454783169951  0.
-0.08712694517283463 0.4075904930418973  0.
-0.10596588936082517 0.5215060580607557  0.
-0.1264706187669928 0.645512816310844  0.
-0.14872112812693017 0.7781586715876679  0.
-0.17231085418313116 0.9182994066528968  0.
-0.19717107440672677 1.0645731397344431  0.
-0.22277934186450796 1.2158204130585073  0.
-0.24898129366313268 1.3707132670130584  0.
-0.2752149170760705 1.528086048879493  0.
-0.3013992645947834 1.6867791374824703  0.
</DataArray>
<DataArray type="Float64" Name="Nodal_sigma_xx" NumberOfComponents="1" format="ascii" >
-0.04580801524898881 
-0.04580801524898881 
-0.037838779884233155 
-0.029869544519477504 
-0.010367634414402162 
0.009134275690673179 
0.02014117384548027 
0.031148072000287363 
0.04187424978983263 
0.052600427579377905 
0.05988857824285447 
0.06717672890633104 
0.07247187580581929 
0.07776702270530755 
0.0854090323980028 
0.09305104209069805 
0.09305104209069805 
-0.04580801524898881 
-0.037838779884233155 
-0.010367634414402162 
0.02014117384548027 
0.04187424978983263 
0.05988857824285447 
0.07247187580581929 
0.0854090323980028 
0.09305104209069805 
-0.04580801524898881 
-0.04580801524898881 
-0.037838779884233155 
-0.029869544519477504 
-0.010367634414402162 
0.009134275690673179 
0.02014117384548027 
0.031148072000287363 
0.04187424978983263 
0.052600427579377905 
0.05988857824285447 
0.06717672890633104 
0.07247187580581929 
0.07776702270530755 
0.0854090323980028 
0.09305104209069805 
0.09305104209069805 
</DataArray>
<DataArray type="Float64" Name="Nodal_sigma_yy" NumberOfComponents="1" format="ascii" >
-0.0395355942083711 
-0.0395355942083711 
-0.06928486917476516 
-0.09903414414115921 
-0.08095266410431376 
-0.06287118406746829 
-0.05524420239092856 
-0.047617220714388835 
-0.03756902546613661 
-0.027520830217884384 
-0.02113065888504124 
-0.01474048755219809 
-0.007636538397634529 
-0.0005325892430709676 
0.03831007037615245 
0.07715272999537587 
0.07715272999537587 
-0.0395355942083711 
-0.06928486917476516 
-0.08095266410431376 
-0.05524420239092856 
-0.03756902546613661 
-0.02113065888504124 
-0.007636538397634529 
0.03831007037615245 
0.07715272999537587 
-0.0395355942083711 
-0.0395355942083711 
-0.06928486917476516 
-0.09903414414115921 
-0.08095266410431376 
-0.06287118406746829 
-0.05524420239092856 
-0.047617220714388835 
-0.03756902546613661 
-0.027520830217884384 
-0.02113065888504124 
-0.01474048755219809 
-0.007636538397634529 
-0.0005325892430709676 
0.03831007037615245 
0.07715272999537587 
0.07715272999537587 
</DataArray>
<DataArray type="Float64" Name="Nodal_sigma_xy" NumberOfComponents="1" format="ascii" >
0.24762513561337623 
0.24762513561337623 
0.26931242042470377 
0.2909997052360313 
0.28447045572419793 
0.27794120621236457 
0.2777994853092207 
0.2776577644060768 
0.27594073440709277 
0.2742237044081088 
0.27307733983926125 
0.2719309752704137 
0.2711974278264795 
0.2704638803825453 
0.26949720887812334 
0.26853053737370136 
0.26853053737370136 
0.24762513561337623 
0.26931242042470377 
0.28447045572419793 
0.2777994853092207 
0.27594073440709277 
0.27307733983926125 
0.2711974278264795 
0.26949720887812334 
0.26853053737370136 
0.24762513561337623 
0.24762513561337623 
0.26931242042470377 
0.2909997052360313 
0.28447045572419793 
0.27794120621236457 
0.2777994853092207 
0.2776577644060768 
0.27594073440709277 
0.2742237044081088 
0.27307733983926125 
0.2719309752704137 
0.2711974278264795 
0.2704638803825453 
0.26949720887812334 
0.26853053737370136 
0.26853053737370136 
</DataArray>
</PointData>
<CellData>
</CellData>
<Points>
<DataArray type="Float64" Name="Points" NumberOfComponents="3" format="ascii">
0.0 0.0 0.0
0.5 0.0 0.0
1.0 0.0 0.0
1.5 0.0 0.0
2.0 0.0 0.0
2.5 0.0 0.0
3.0 0.0 0.0
3.5 0.0 0.0
4.0 0.0 0.0
4.5 0.0 0.0
5.0 0.0 0.0
5.5 0.0 0.0
6.0 0.0 0.0
6.5 0.0 0.0
7.0 0.0 0.0
7.5 0.0 0.0
8.0 0.0 0.0
0.0 0.25 0.0
1.0 0.25 0.0
2.0 0.25 0.0
3.0 0.25 0.0
4.0 0.25 0.0
5.0 0.25 0.0
6.0 0.25 0.0
7.0 0.25 0.0
8.0 0.25 0.0
0.0 0.5 0.0
0.5 0.5 0.0
1.0 0.5 0.0
1.5 0.5 0.0
2.0 0.5 0.0
2.5 0.5 0.0
3.0 0.5 0.0
3.5 0.5 0.0
4.0 0.5 0.0
4.5 0.5 0.0
5.0 0.5 0.0
5.5 0.5 0.0
6.0 0.5 0.0
6.5 0.5 0.0
7.0 0.5 0.0
7.5 0.5 0.0
8.0 0.5 0.0
</DataArray>
</Points>
<Cells>
<DataArray type="Int64" Name="connectivity" format="ascii">
0 2 28 26 
2 4 30 28 
4 6 32 30 
6 8 34 32 
8 10 36 34 
10 12 38 36 
12 14 40 38 
14 16 42 40 
</DataArray>
<DataArray type="Int64" Name="offsets" format="ascii">
8
16
24
32
40
48
56
64
</DataArray>
<DataArray type="UInt8" Name="types" format="ascii" RangeMin="9" RangeMax="9">
9
9
9
9
9
9
9
9
</DataArray>
</Cells>
</Piece>
</UnstructuredGrid>
</VTKFile>
