<?xml version="1.0"?>
<VTKFile type="UnstructuredGrid" version="0.1" byte_order="LittleEndian" compressor="vtkZLibDataCompressor">
<UnstructuredGrid>
<Piece NumberOfPoints="43" NumberOfCells="8">
<PointData>
<DataArray type="Float64" Name="displacement" NumberOfComponents="3" format="ascii" >
0.0 0.0  0.
0.005076055069502696 0.0056423507896170445  0.
0.010579681564019689 0.022395675070826626  0.
0.015583264882566417 0.05063150319882371  0.
0.01923180992880876 0.0900329649706132  0.
0.02142456728364405 0.1393173494783525  0.
0.022360786747869288 0.1975834706629263  0.
0.02183800654389697 0.2639621329131219  0.
0.019912555096201916 0.3376822967490818  0.
0.016512248129173887 0.4178123622824469  0.
0.011821917924583257 0.5035489462848014  0.
0.005812424490684033 0.594011943698516  0.
-0.0012898871901637905 0.6884113499103334  0.
-0.009474976172483753 0.7858814199193902  0.
-0.018478998673727796 0.8856194926749159  0.
-0.02824939645824974 0.9868140776419647  0.
-0.038508436640072474 1.0886275716864928  0.
0.0 0.0  0.
-0.0003514210463567087 0.021135463270648292  0.
-0.0027060560885672144 0.08843516088906532  0.
-0.008472853139395671 0.1950893501654898  0.
-0.01823797211454627 0.3343010545119513  0.
-0.03195809822220641 0.4993438669807764  0.
-0.04906379276928498 0.6835768335791195  0.
-0.06861151424114195 0.8804389537026994  0.
-0.08941545623791122 1.0834290966307647  0.
0.0 0.0  0.
-0.005225022128961675 0.005541285276145005  0.
-0.01132891102835114 0.021876446522727935  0.
-0.017991253414722456 0.049499340038351616  0.
-0.024774890715105052 0.08804925158971488  0.
-0.03178151076045588 0.1364795623624138  0.
-0.039442005988163185 0.19371870554276485  0.
-0.04765741027818046 0.259105292969752  0.
-0.05652599351911294 0.3317816985632095  0.
-0.06589517213973861 0.4109699048215255  0.
-0.07585403293598207 0.4957852799005392  0.
-0.08618930864130275 0.5854683090707379  0.
-0.09692279429156267 0.6791690437156346  0.
-0.10779154171024054 0.7761125087269211  0.
-0.11878242776106579 0.8754545116562974  0.
-0.1296246811510383 0.9764137449852114  0.
-0.14034971793374365 1.0782571762280055  0.
</DataArray>
<DataArray type="Float64" Name="Nodal_sigma_xx" NumberOfComponents="1" format="ascii" >
-0.01817668351848647 
-0.01817668351848647 
-0.015154415809069337 
-0.012132148099652202 
-0.004487777983065408 
0.0031565921335213864 
0.007494672596332395 
0.011832753059143403 
0.016118066506166033 
0.020403379953188663 
0.023328216590896268 
0.026253053228603877 
0.028599755079513622 
0.030946456930423364 
0.03498709128756254 
0.039027725644701715 
0.039027725644701715 
-0.01817668351848647 
-0.015154415809069337 
-0.004487777983065408 
0.007494672596332395 
0.016118066506166033 
0.023328216590896268 
0.028599755079513622 
0.03498709128756254 
0.039027725644701715 
-0.01817668351848647 
-0.01817668351848647 
-0.015154415809069337 
-0.012132148099652202 
-0.004487777983065408 
0.0031565921335213864 
0.007494672596332395 
0.011832753059143403 
0.016118066506166033 
0.020403379953188663 
0.023328216590896268 
0.026253053228603877 
0.028599755079513622 
0.030946456930423364 
0.03498709128756254 
0.039027725644701715 
0.039027725644701715 
</DataArray>
<DataArray type="Float64" Name="Nodal_sigma_yy" NumberOfComponents="1" format="ascii" >
-0.015687796661104078 
-0.015687796661104078 
-0.0275572511372672 
-0.03942670561343032 
-0.03230999936082723 
-0.02519329310822414 
-0.02220018095478973 
-0.01920706880135532 
-0.015186494783424334 
-0.011165920765493347 
-0.008587235668237143 
-0.006008550570980938 
-0.0022752176586259593 
0.0014581152537290198 
0.025438488017381494 
0.04941886078103397 
0.04941886078103397 
-0.015687796661104078 
-0.0275572511372672 
-0.03230999936082723 
-0.02220018095478973 
-0.015186494783424334 
-0.008587235668237143 
-0.0022752176586259593 
0.025438488017381494 
0.04941886078103397 
-0.015687796661104078 
-0.015687796661104078 
-0.0275572511372672 
-0.03942670561343032 
-0.03230999936082723 
-0.02519329310822414 
-0.02220018095478973 
-0.01920706880135532 
-0.015186494783424334 
-0.011165920765493347 
-0.008587235668237143 
-0.006008550570980938 
-0.0022752176586259593 
0.0014581152537290198 
0.025438488017381494 
0.04941886078103397 
0.04941886078103397 
</DataArray>
<DataArray type="Float64" Name="Nodal_sigma_xy" NumberOfComponents="1" format="ascii" >
0.15211863847239462 
0.15211863847239462 
0.16601416442905714 
0.17990969038571963 
0.17616530517752743 
0.17242091996933523 
0.17291762226088314 
0.17341432455243108 
0.17285679338808801 
0.17229926222374498 
0.17203146310319772 
0.17176366398265047 
0.17162010830265562 
0.1714765526226608 
0.17102590110011018 
0.17057524957755957 
0.17057524957755957 
0.15211863847239462 
0.16601416442905714 
0.17616530517752743 
0.17291762226088314 
0.17285679338808801 
0.17203146310319772 
0.17162010830265562 
0.17102590110011018 
0.17057524957755957 
0.15211863847239462 
0.15211863847239462 
0.16601416442905714 
0.17990969038571963 
0.17616530517752743 
0.17242091996933523 
0.17291762226088314 
0.17341432455243108 
0.17285679338808801 
0.17229926222374498 
0.17203146310319772 
0.17176366398265047 
0.17162010830265562 
0.1714765526226608 
0.17102590110011018 
0.17057524957755957 
0.17057524957755957 
</DataArray>
</PointData>
<CellData>
</CellData>
<Points>
<DataArray type="Float64" Name="Points" NumberOfComponents="3" format="ascii">
0.0 0.0 0.0
0.5 0.0 0.0
1.0 0.0 0.0
1.5 0.0 0.0
2.0 0.0 0.0
2.5 0.0 0.0
3.0 0.0 0.0
3.5 0.0 0.0
4.0 0.0 0.0
4.5 0.0 0.0
5.0 0.0 0.0
5.5 0.0 0.0
6.0 0.0 0.0
6.5 0.0 0.0
7.0 0.0 0.0
7.5 0.0 0.0
8.0 0.0 0.0
0.0 0.25 0.0
1.0 0.25 0.0
2.0 0.25 0.0
3.0 0.25 0.0
4.0 0.25 0.0
5.0 0.25 0.0
6.0 0.25 0.0
7.0 0.25 0.0
8.0 0.25 0.0
0.0 0.5 0.0
0.5 0.5 0.0
1.0 0.5 0.0
1.5 0.5 0.0
2.0 0.5 0.0
2.5 0.5 0.0
3.0 0.5 0.0
3.5 0.5 0.0
4.0 0.5 0.0
4.5 0.5 0.0
5.0 0.5 0.0
5.5 0.5 0.0
6.0 0.5 0.0
6.5 0.5 0.0
7.0 0.5 0.0
7.5 0.5 0.0
8.0 0.5 0.0
</DataArray>
</Points>
<Cells>
<DataArray type="Int64" Name="connectivity" format="ascii">
0 2 28 26 
2 4 30 28 
4 6 32 30 
6 8 34 32 
8 10 36 34 
10 12 38 36 
12 14 40 38 
14 16 42 40 
</DataArray>
<DataArray type="Int64" Name="offsets" format="ascii">
8
16
24
32
40
48
56
64
</DataArray>
<DataArray type="UInt8" Name="types" format="ascii" RangeMin="9" RangeMax="9">
9
9
9
9
9
9
9
9
</DataArray>
</Cells>
</Piece>
</UnstructuredGrid>
</VTKFile>
