<?xml version="1.0"?>
<VTKFile type="UnstructuredGrid" version="0.1" byte_order="LittleEndian" compressor="vtkZLibDataCompressor">
<UnstructuredGrid>
<Piece NumberOfPoints="43" NumberOfCells="8">
<PointData>
<DataArray type="Float64" Name="displacement" NumberOfComponents="3" format="ascii" >
0.0 0.0  0.
0.002587742587259688 0.002841110918453316  0.
0.005451637610824669 0.011270283927073951  0.
0.008198794692698604 0.025497366653507596  0.
0.010449278821849815 0.04536781708906198  0.
0.012174507162410487 0.07026794901320035  0.
0.013506330074898765 0.09973100019464068  0.
0.01435119160061567 0.1333490239898252  0.
0.014743538651097291 0.17072794338691197  0.
0.014632887270137148 0.21141737610136355  0.
0.014101874827048297 0.2550032074337121  0.
0.013109231357820572 0.3010535893569713  0.
0.011744930985775478 0.349159333278368  0.
0.009978047019793787 0.3988889501119  0.
0.007907416678782307 0.44982451898171216  0.
0.005519121379739929 0.5015561511824542  0.
0.002912898374527226 0.5536453249869145  0.
0.0 0.0  0.
-9.004333929176273e-05 0.010696912839852345  0.
-0.0006943641635535393 0.04480415603016351  0.
-0.0021773798855021253 0.09894623110718746  0.
-0.004694009413853175 0.16974495270147816  0.
-0.008237475445753812 0.2538322804094284  0.
-0.012664135818190838 0.34785107598308  0.
-0.017733062750180398 0.44845463970733457  0.
-0.023138477291071408 0.5523043088198154  0.
0.0 0.0  0.
-0.002625893955545953 0.0028152279884566204  0.
-0.0056436083740967246 0.011137154604657334  0.
-0.008816249011032383 0.025206848173683617  0.
-0.011871722771494524 0.04485822005274781  0.
-0.01483417455921931 0.06953826066307581  0.
-0.017896106039162377 0.09873609620350746  0.
-0.02099164525679 0.13209742283624176  0.
-0.024167276611749163 0.1692056508876861  0.
-0.027352705483510282 0.20965029270965485  0.
-0.030606975819573667 0.2529960810791834  0.
-0.033842155474984 0.29884261801739104  0.
-0.037095989315755265 0.34676545727406005  0.
-0.04026616596078507 0.3963561917167395  0.
-0.043382181386742664 0.44718882326937137  0.
-0.04634556474507214 0.49885262800806035  0.
-0.049207498140515865 0.5509804899354744  0.
</DataArray>
<DataArray type="Float64" Name="Nodal_sigma_xx" NumberOfComponents="1" format="ascii" >
-0.004664248302790182 
-0.004664248302790182 
-0.003908573469199902 
-0.003152898635609623 
-0.001205115730392059 
0.0007426671748255052 
0.001850252750993622 
0.0029578383271617386 
0.004063592200261621 
0.005169346073361503 
0.005916980999260092 
0.006664615925158681 
0.007402447688185962 
0.008140279451213242 
0.009830967796005396 
0.011521656140797552 
0.011521656140797552 
-0.004664248302790182 
-0.003908573469199902 
-0.001205115730392059 
0.001850252750993622 
0.004063592200261621 
0.005916980999260092 
0.007402447688185962 
0.009830967796005396 
0.011521656140797552 
-0.004664248302790182 
-0.004664248302790182 
-0.003908573469199902 
-0.003152898635609623 
-0.001205115730392059 
0.0007426671748255052 
0.001850252750993622 
0.0029578383271617386 
0.004063592200261621 
0.005169346073361503 
0.005916980999260092 
0.006664615925158681 
0.007402447688185962 
0.008140279451213242 
0.009830967796005396 
0.011521656140797552 
0.011521656140797552 
</DataArray>
<DataArray type="Float64" Name="Nodal_sigma_yy" NumberOfComponents="1" format="ascii" >
-0.004025498040797394 
-0.004025498040797394 
-0.007079981909110412 
-0.01013446577742343 
-0.008317029436034056 
-0.006499593094644683 
-0.00573788328961645 
-0.004976173484588216 
-0.003933293012292845 
-0.002890412539997473 
-0.002218406603996124 
-0.0015464006679947744 
1.5244281833203237e-07 
0.0015467055536314384 
0.013421750375663365 
0.02529679519769529 
0.02529679519769529 
-0.004025498040797394 
-0.007079981909110412 
-0.008317029436034056 
-0.00573788328961645 
-0.003933293012292845 
-0.002218406603996124 
1.5244281833203237e-07 
0.013421750375663365 
0.02529679519769529 
-0.004025498040797394 
-0.004025498040797394 
-0.007079981909110412 
-0.01013446577742343 
-0.008317029436034056 
-0.006499593094644683 
-0.00573788328961645 
-0.004976173484588216 
-0.003933293012292845 
-0.002890412539997473 
-0.002218406603996124 
-0.0015464006679947744 
1.5244281833203237e-07 
0.0015467055536314384 
0.013421750375663365 
0.02529679519769529 
0.02529679519769529 
</DataArray>
<DataArray type="Float64" Name="Nodal_sigma_xy" NumberOfComponents="1" format="ascii" >
0.07597779016977296 
0.07597779016977296 
0.0830710293024953 
0.09016426843521765 
0.0883562428388791 
0.08654821724254055 
0.08694303717797147 
0.08733785711340239 
0.08718481023442383 
0.08703176335544527 
0.0870095413662832 
0.08698731937712112 
0.08699530420325646 
0.0870032890293918 
0.08681675079080362 
0.08663021255221544 
0.08663021255221544 
0.07597779016977296 
0.0830710293024953 
0.0883562428388791 
0.08694303717797147 
0.08718481023442383 
0.0870095413662832 
0.08699530420325646 
0.08681675079080362 
0.08663021255221544 
0.07597779016977296 
0.07597779016977296 
0.0830710293024953 
0.09016426843521765 
0.0883562428388791 
0.08654821724254055 
0.08694303717797147 
0.08733785711340239 
0.08718481023442383 
0.08703176335544527 
0.0870095413662832 
0.08698731937712112 
0.08699530420325646 
0.0870032890293918 
0.08681675079080362 
0.08663021255221544 
0.08663021255221544 
</DataArray>
</PointData>
<CellData>
</CellData>
<Points>
<DataArray type="Float64" Name="Points" NumberOfComponents="3" format="ascii">
0.0 0.0 0.0
0.5 0.0 0.0
1.0 0.0 0.0
1.5 0.0 0.0
2.0 0.0 0.0
2.5 0.0 0.0
3.0 0.0 0.0
3.5 0.0 0.0
4.0 0.0 0.0
4.5 0.0 0.0
5.0 0.0 0.0
5.5 0.0 0.0
6.0 0.0 0.0
6.5 0.0 0.0
7.0 0.0 0.0
7.5 0.0 0.0
8.0 0.0 0.0
0.0 0.25 0.0
1.0 0.25 0.0
2.0 0.25 0.0
3.0 0.25 0.0
4.0 0.25 0.0
5.0 0.25 0.0
6.0 0.25 0.0
7.0 0.25 0.0
8.0 0.25 0.0
0.0 0.5 0.0
0.5 0.5 0.0
1.0 0.5 0.0
1.5 0.5 0.0
2.0 0.5 0.0
2.5 0.5 0.0
3.0 0.5 0.0
3.5 0.5 0.0
4.0 0.5 0.0
4.5 0.5 0.0
5.0 0.5 0.0
5.5 0.5 0.0
6.0 0.5 0.0
6.5 0.5 0.0
7.0 0.5 0.0
7.5 0.5 0.0
8.0 0.5 0.0
</DataArray>
</Points>
<Cells>
<DataArray type="Int64" Name="connectivity" format="ascii">
0 2 28 26 
2 4 30 28 
4 6 32 30 
6 8 34 32 
8 10 36 34 
10 12 38 36 
12 14 40 38 
14 16 42 40 
</DataArray>
<DataArray type="Int64" Name="offsets" format="ascii">
8
16
24
32
40
48
56
64
</DataArray>
<DataArray type="UInt8" Name="types" format="ascii" RangeMin="9" RangeMax="9">
9
9
9
9
9
9
9
9
</DataArray>
</Cells>
</Piece>
</UnstructuredGrid>
</VTKFile>
