<?xml version="1.0"?>
<VTKFile type="UnstructuredGrid" version="0.1" byte_order="LittleEndian" compressor="vtkZLibDataCompressor">
<UnstructuredGrid>
<Piece NumberOfPoints="43" NumberOfCells="8">
<PointData>
<DataArray type="Float64" Name="displacement" NumberOfComponents="3" format="ascii" >
0.0 0.0  0.
0.010169966176925527 0.01161606693463326  0.
0.020684020626710025 0.046101696875244944  0.
0.029016088818220806 0.10398221191991905  0.
0.03299496553007947 0.18447480854532025  0.
0.03227043127052799 0.2846384812331944  0.
0.026997507199579742 0.40264728355022134  0.
0.016745899688598333 0.5364392989290937  0.
0.0015998095003171694 0.6844323704634823  0.
-0.01842536571270373 0.8445663317673812  0.
-0.042856713760526285 1.0152597278358393  0.
-0.07150258156416073 1.1946479079104824  0.
-0.10370605127144528 1.3812266334348293  0.
-0.1391382566191056 1.5732410864307007  0.
-0.17699837523672443 1.7692074269853686  0.
-0.21685239417515645 1.9675420958014749  0.
-0.2578370202615079 2.1667286917339066  0.
0.0 0.0  0.
-0.0014531320972239114 0.043000751487759954  0.
-0.011129868237746738 0.1792137503133635  0.
-0.03465604930181554 0.3936962175059087  0.
-0.07418685572563004 0.6717121148052381  0.
-0.12931875983545219 0.9991101784949793  0.
-0.19760255883506436 1.3624432568389215  0.
-0.2751923058305267 1.7489017927490738  0.
-0.35738535315027065 2.1461351772248  0.
0.0 0.0  0.
-0.010787128131211837 0.011197366605135803  0.
-0.023782263369628416 0.04395994349374732  0.
-0.03894580448420673 0.09932620642155596  0.
-0.05578684369044897 0.1763505378054743  0.
-0.07474352403561282 0.27305611155566484  0.
-0.09685263284934774 0.3869394809948856  0.
-0.12204795647521215 0.5167729238576501  0.
-0.15051555596259583 0.6606348306203027  0.
-0.18189875018383847 0.8170664177192984  0.
-0.2162315557781129 0.984168728642237  0.
-0.25293497957666006 1.160540509942025  0.
-0.2918198836364944 1.3444396375405434  0.
-0.3321283657783461 1.5344612340029467  0.
-0.37353905699643375 1.7289363154167425  0.
-0.41522073493597583 1.9264615715378306  0.
-0.45694851958886523 2.1255763460573367  0.
</DataArray>
<DataArray type="Float64" Name="Nodal_sigma_xx" NumberOfComponents="1" format="ascii" >
-0.07480805902397986 
-0.07480805902397986 
-0.06121485301181274 
-0.04762164699964562 
-0.01539625544791651 
0.0168291361038126 
0.0349073439866653 
0.05298555186951799 
0.07038219782230115 
0.0877788437750843 
0.099505897781036 
0.11123295178698771 
0.11936704877405233 
0.12750114576111693 
0.13833553952735744 
0.14916993329359793 
0.14916993329359793 
-0.07480805902397986 
-0.06121485301181274 
-0.01539625544791651 
0.0349073439866653 
0.07038219782230115 
0.099505897781036 
0.11936704877405233 
0.13833553952735744 
0.14916993329359793 
-0.07480805902397986 
-0.07480805902397986 
-0.06121485301181274 
-0.04762164699964562 
-0.01539625544791651 
0.0168291361038126 
0.0349073439866653 
0.05298555186951799 
0.07038219782230115 
0.0877788437750843 
0.099505897781036 
0.11123295178698771 
0.11936704877405233 
0.12750114576111693 
0.13833553952735744 
0.14916993329359793 
0.14916993329359793 
</DataArray>
<DataArray type="Float64" Name="Nodal_sigma_yy" NumberOfComponents="1" format="ascii" >
-0.06456571610565019 
-0.06456571610565019 
-0.1128758430218873 
-0.16118596993812442 
-0.13142852662366006 
-0.1016710833091957 
-0.0890944608597919 
-0.0765178384103881 
-0.060221609499697834 
-0.04392538058900757 
-0.03364825746477179 
-0.02337113434053601 
-0.013291266857828523 
-0.0032113993751210334 
0.04693926294343139 
0.09708992526198382 
0.09708992526198382 
-0.06456571610565019 
-0.1128758430218873 
-0.13142852662366006 
-0.0890944608597919 
-0.060221609499697834 
-0.03364825746477179 
-0.013291266857828523 
0.04693926294343139 
0.09708992526198382 
-0.06456571610565019 
-0.06456571610565019 
-0.1128758430218873 
-0.16118596993812442 
-0.13142852662366006 
-0.1016710833091957 
-0.0890944608597919 
-0.0765178384103881 
-0.060221609499697834 
-0.04392538058900757 
-0.03364825746477179 
-0.02337113434053601 
-0.013291266857828523 
-0.0032113993751210334 
0.04693926294343139 
0.09708992526198382 
0.09708992526198382 
</DataArray>
<DataArray type="Float64" Name="Nodal_sigma_xy" NumberOfComponents="1" format="ascii" >
0.3243432998068475 
0.3243432998068475 
0.35152985572505674 
0.37871641164326597 
0.36955624247888264 
0.36039607331449924 
0.3589473223040329 
0.35749857129356666 
0.35418398500117526 
0.35086939870878386 
0.3484474854966897 
0.3460255722845955 
0.3444281421771239 
0.3428307120696524 
0.34127962122176897 
0.33972853037388556 
0.33972853037388556 
0.3243432998068475 
0.35152985572505674 
0.36955624247888264 
0.3589473223040329 
0.35418398500117526 
0.3484474854966897 
0.3444281421771239 
0.34127962122176897 
0.33972853037388556 
0.3243432998068475 
0.3243432998068475 
0.35152985572505674 
0.37871641164326597 
0.36955624247888264 
0.36039607331449924 
0.3589473223040329 
0.35749857129356666 
0.35418398500117526 
0.35086939870878386 
0.3484474854966897 
0.3460255722845955 
0.3444281421771239 
0.3428307120696524 
0.34127962122176897 
0.33972853037388556 
0.33972853037388556 
</DataArray>
</PointData>
<CellData>
</CellData>
<Points>
<DataArray type="Float64" Name="Points" NumberOfComponents="3" format="ascii">
0.0 0.0 0.0
0.5 0.0 0.0
1.0 0.0 0.0
1.5 0.0 0.0
2.0 0.0 0.0
2.5 0.0 0.0
3.0 0.0 0.0
3.5 0.0 0.0
4.0 0.0 0.0
4.5 0.0 0.0
5.0 0.0 0.0
5.5 0.0 0.0
6.0 0.0 0.0
6.5 0.0 0.0
7.0 0.0 0.0
7.5 0.0 0.0
8.0 0.0 0.0
0.0 0.25 0.0
1.0 0.25 0.0
2.0 0.25 0.0
3.0 0.25 0.0
4.0 0.25 0.0
5.0 0.25 0.0
6.0 0.25 0.0
7.0 0.25 0.0
8.0 0.25 0.0
0.0 0.5 0.0
0.5 0.5 0.0
1.0 0.5 0.0
1.5 0.5 0.0
2.0 0.5 0.0
2.5 0.5 0.0
3.0 0.5 0.0
3.5 0.5 0.0
4.0 0.5 0.0
4.5 0.5 0.0
5.0 0.5 0.0
5.5 0.5 0.0
6.0 0.5 0.0
6.5 0.5 0.0
7.0 0.5 0.0
7.5 0.5 0.0
8.0 0.5 0.0
</DataArray>
</Points>
<Cells>
<DataArray type="Int64" Name="connectivity" format="ascii">
0 2 28 26 
2 4 30 28 
4 6 32 30 
6 8 34 32 
8 10 36 34 
10 12 38 36 
12 14 40 38 
14 16 42 40 
</DataArray>
<DataArray type="Int64" Name="offsets" format="ascii">
8
16
24
32
40
48
56
64
</DataArray>
<DataArray type="UInt8" Name="types" format="ascii" RangeMin="9" RangeMax="9">
9
9
9
9
9
9
9
9
</DataArray>
</Cells>
</Piece>
</UnstructuredGrid>
</VTKFile>
