<?xml version="1.0"?>
<VTKFile type="UnstructuredGrid" version="0.1" byte_order="LittleEndian" compressor="vtkZLibDataCompressor">
<UnstructuredGrid>
<Piece NumberOfPoints="43" NumberOfCells="8">
<PointData>
<DataArray type="Float64" Name="displacement" NumberOfComponents="3" format="ascii" >
0.0 0.0  0.
0.0038466140630533277 0.004249416858175158  0.
0.008060616916418534 0.016862739455354884  0.
0.011998224434206284 0.03813729594865729  0.
0.015052837220137876 0.06783940493355259  0.
0.01716442379196837 0.10502731040817574  0.
0.018506391141144028 0.14901385367715717  0.
0.018931740013782842 0.19916683347895178  0.
0.01848725798285177 0.25490192147273477  0.
0.01710749326738949 0.3155312411411734  0.
0.01492393746208449 0.3804428016644233  0.
0.011894506312985562 0.44898162176274325  0.
0.008172047851349132 0.5205439178643335  0.
0.0037372879842206518 0.5944800604733531  0.
-0.0012359276059356772 0.6701745536974895  0.
-0.006737871464450422 0.7470141734550784  0.
-0.012588546451223771 0.8243546260266141  0.
0.0 0.0  0.
-0.00020038998876185075 0.015958798638962293  0.
-0.0015443103601729326 0.06681362720659312  0.
-0.0048394008642860436 0.14748239343844918  0.
-0.010425730214872133 0.2528846364831731  0.
-0.018283814762252736 0.3779710887149727  0.
-0.028091604604161494 0.5177291925542743  0.
-0.03931132938342574 0.6671810037446786  0.
-0.05126377703636801 0.8213747794809689  0.
0.0 0.0  0.
-0.003931536379840472 0.004191802473269172  0.
-0.008487845883948682 0.01656655058703196  0.
-0.013371899698034493 0.03749117405516337  0.
-0.018216335813820986 0.06670660213483252  0.
-0.023077611279592136 0.10340593898882994  0.
-0.02826283204358222 0.1468043024000851  0.
-0.03368543535269573 0.1963884900503813  0.
-0.039417711789619926 0.251524393478857  0.
-0.045349322089681746 0.3116123988963613  0.
-0.05155825919049576 0.3759937753374253  0.
-0.05789793877620391 0.4440830177612534  0.
-0.0644047589734628 0.515242124021643  0.
-0.07090248231739427 0.5888733645856313  0.
-0.07740792731951716 0.6643393821445999  0.
-0.08374466927445143 0.7410379795770041  0.
-0.08996256949609821 0.8184176023495828  0.
</DataArray>
<DataArray type="Float64" Name="Nodal_sigma_xx" NumberOfComponents="1" format="ascii" >
-0.010373072468709369 
-0.010373072468709369 
-0.00867277914959308 
-0.006972485830476789 
-0.002626895352564477 
0.0017186951253478355 
0.0041880965161214465 
0.006657497906895058 
0.009109106964643744 
0.011560716022392429 
0.013230917059789588 
0.01490111809718675 
0.016344719656268627 
0.017788321215350504 
0.020581627879957307 
0.023374934544564106 
0.023374934544564106 
-0.010373072468709369 
-0.00867277914959308 
-0.002626895352564477 
0.0041880965161214465 
0.009109106964643744 
0.013230917059789588 
0.016344719656268627 
0.020581627879957307 
0.023374934544564106 
-0.010373072468709369 
-0.010373072468709369 
-0.00867277914959308 
-0.006972485830476789 
-0.002626895352564477 
0.0017186951253478355 
0.0041880965161214465 
0.006657497906895058 
0.009109106964643744 
0.011560716022392429 
0.013230917059789588 
0.01490111809718675 
0.016344719656268627 
0.017788321215350504 
0.020581627879957307 
0.023374934544564106 
0.023374934544564106 
</DataArray>
<DataArray type="Float64" Name="Nodal_sigma_yy" NumberOfComponents="1" format="ascii" >
-0.008952661147408076 
-0.008952661147408076 
-0.015737252496583698 
-0.02252184384575932 
-0.01847115266254282 
-0.01442046147932632 
-0.012719326547302245 
-0.011018191615278169 
-0.00871415478188074 
-0.0064101179484833135 
-0.004928496889904538 
-0.0034468758313257624 
-0.0008771792336731602 
0.001692517363979442 
0.019617488540750263 
0.037542459717521084 
0.037542459717521084 
-0.008952661147408076 
-0.015737252496583698 
-0.01847115266254282 
-0.012719326547302245 
-0.00871415478188074 
-0.004928496889904538 
-0.0008771792336731602 
0.019617488540750263 
0.037542459717521084 
-0.008952661147408076 
-0.008952661147408076 
-0.015737252496583698 
-0.02252184384575932 
-0.01847115266254282 
-0.01442046147932632 
-0.012719326547302245 
-0.011018191615278169 
-0.00871415478188074 
-0.0064101179484833135 
-0.004928496889904538 
-0.0034468758313257624 
-0.0008771792336731602 
0.001692517363979442 
0.019617488540750263 
0.037542459717521084 
0.037542459717521084 
</DataArray>
<DataArray type="Float64" Name="Nodal_sigma_xy" NumberOfComponents="1" format="ascii" >
0.11402301921844353 
0.11402301921844353 
0.1245676647286453 
0.1351123102388471 
0.13236036279156702 
0.12960841534428694 
0.13010725472967916 
0.1306060941150714 
0.13029639630151746 
0.12998669848796354 
0.1298819835022048 
0.1297772685164461 
0.12973807294921094 
0.12969887738197577 
0.12939395308869245 
0.12908902879540912 
0.12908902879540912 
0.11402301921844353 
0.1245676647286453 
0.13236036279156702 
0.13010725472967916 
0.13029639630151746 
0.1298819835022048 
0.12973807294921094 
0.12939395308869245 
0.12908902879540912 
0.11402301921844353 
0.11402301921844353 
0.1245676647286453 
0.1351123102388471 
0.13236036279156702 
0.12960841534428694 
0.13010725472967916 
0.1306060941150714 
0.13029639630151746 
0.12998669848796354 
0.1298819835022048 
0.1297772685164461 
0.12973807294921094 
0.12969887738197577 
0.12939395308869245 
0.12908902879540912 
0.12908902879540912 
</DataArray>
</PointData>
<CellData>
</CellData>
<Points>
<DataArray type="Float64" Name="Points" NumberOfComponents="3" format="ascii">
0.0 0.0 0.0
0.5 0.0 0.0
1.0 0.0 0.0
1.5 0.0 0.0
2.0 0.0 0.0
2.5 0.0 0.0
3.0 0.0 0.0
3.5 0.0 0.0
4.0 0.0 0.0
4.5 0.0 0.0
5.0 0.0 0.0
5.5 0.0 0.0
6.0 0.0 0.0
6.5 0.0 0.0
7.0 0.0 0.0
7.5 0.0 0.0
8.0 0.0 0.0
0.0 0.25 0.0
1.0 0.25 0.0
2.0 0.25 0.0
3.0 0.25 0.0
4.0 0.25 0.0
5.0 0.25 0.0
6.0 0.25 0.0
7.0 0.25 0.0
8.0 0.25 0.0
0.0 0.5 0.0
0.5 0.5 0.0
1.0 0.5 0.0
1.5 0.5 0.0
2.0 0.5 0.0
2.5 0.5 0.0
3.0 0.5 0.0
3.5 0.5 0.0
4.0 0.5 0.0
4.5 0.5 0.0
5.0 0.5 0.0
5.5 0.5 0.0
6.0 0.5 0.0
6.5 0.5 0.0
7.0 0.5 0.0
7.5 0.5 0.0
8.0 0.5 0.0
</DataArray>
</Points>
<Cells>
<DataArray type="Int64" Name="connectivity" format="ascii">
0 2 28 26 
2 4 30 28 
4 6 32 30 
6 8 34 32 
8 10 36 34 
10 12 38 36 
12 14 40 38 
14 16 42 40 
</DataArray>
<DataArray type="Int64" Name="offsets" format="ascii">
8
16
24
32
40
48
56
64
</DataArray>
<DataArray type="UInt8" Name="types" format="ascii" RangeMin="9" RangeMax="9">
9
9
9
9
9
9
9
9
</DataArray>
</Cells>
</Piece>
</UnstructuredGrid>
</VTKFile>
