<?xml version="1.0"?>
<VTKFile type="UnstructuredGrid" version="0.1" byte_order="LittleEndian" compressor="vtkZLibDataCompressor">
<UnstructuredGrid>
<Piece NumberOfPoints="43" NumberOfCells="8">
<PointData>
<DataArray type="Float64" Name="displacement" NumberOfComponents="3" format="ascii" >
0.0 0.0  0.
0.011696016485866961 0.013475440073115704  0.
0.023596953626324788 0.05345967317332896  0.
0.032561750343087524 0.12046318785376164  0.
0.035936468627203774 0.213504839973322  0.
0.03328121109032034 0.3290607653362316  0.
0.024695295458784582 0.4649991629519895  0.
0.009695097232715139 0.6188298134296677  0.
-0.011622600618984173 0.7887078278793536  0.
-0.03916883942685991 0.9722021281193387  0.
-0.07235944882473275 1.167502469217229  0.
-0.11087820682699118 1.3724430962982617  0.
-0.15390076349331933 1.585329767223417  0.
-0.2009409871974855 1.8041568851859573  0.
-0.2509920279238468 2.0272762008723073  0.
-0.3034465501783162 2.2529030017075855  0.
-0.3572199693797195 2.479367363917137  0.
0.0 0.0  0.
-0.0019394701625089846 0.04968885020236566  0.
-0.014821093699764231 0.20673652916707722  0.
-0.04604198461640172 0.4533470903747648  0.
-0.09833288281362025 0.7720694156620835  0.
-0.17103976734582121 1.146356245030737  0.
-0.26085352026108444 1.5607334927390113  0.
-0.3626876605647334 2.0006863088145015  0.
-0.47038809863604475 2.4523810251872575  0.
0.0 0.0  0.
-0.01252042147481049 0.012916153773227017  0.
-0.027732223419722975 0.05060408337507462  0.
-0.04579930984064407 0.1142633252848697  0.
-0.06628359683151065 0.20270569031154634  0.
-0.08977053942483236 0.313687161421403  0.
-0.11749444352163808 0.4441865032829202  0.
-0.14942339608874078 0.5928125783950066  0.
-0.18575233067156538 0.7572772461061422  0.
-0.22605400920285798 0.935933335539963  0.
-0.27030632252283554 1.126556522399551  0.
-0.3177955269105411 1.3275802053227255  0.
-0.36821991657904946 1.536998899140759  0.
-0.4206376508889659 1.7532582717857919  0.
-0.4745801370386062 1.9744643219770557  0.
-0.5290049200859674 2.199075188346444  0.
-0.5835572212131741 2.4254320957173903  0.
</DataArray>
<DataArray type="Float64" Name="Nodal_sigma_xx" NumberOfComponents="1" format="ascii" >
-0.09965387932457363 
-0.09965387932457363 
-0.08089363850265682 
-0.062133397680740006 
-0.018789042573915893 
0.024555312532908224 
0.04874158543115037 
0.07292785832939251 
0.09596339265756734 
0.11899892698574217 
0.13441309206539476 
0.14982725714504733 
0.16023286486227764 
0.17063847257950795 
0.18394434410765237 
0.1972502156357968 
0.1972502156357968 
-0.09965387932457363 
-0.08089363850265682 
-0.018789042573915893 
0.04874158543115037 
0.09596339265756734 
0.13441309206539476 
0.16023286486227764 
0.18394434410765237 
0.1972502156357968 
-0.09965387932457363 
-0.09965387932457363 
-0.08089363850265682 
-0.062133397680740006 
-0.018789042573915893 
0.024555312532908224 
0.04874158543115037 
0.07292785832939251 
0.09596339265756734 
0.11899892698574217 
0.13441309206539476 
0.14982725714504733 
0.16023286486227764 
0.17063847257950795 
0.18394434410765237 
0.1972502156357968 
0.1972502156357968 
</DataArray>
<DataArray type="Float64" Name="Nodal_sigma_yy" NumberOfComponents="1" format="ascii" >
-0.08601329677428583 
-0.08601329677428583 
-0.15006125984995664 
-0.21410922292562742 
-0.17421752483487996 
-0.13432582674413246 
-0.11744550725274093 
-0.1005651877613494 
-0.07897930413299802 
-0.057393420504646624 
-0.04387544940095762 
-0.03035747829726861 
-0.017995401255174535 
-0.005633324213080462 
0.05252865867835531 
0.11069064156979108 
0.11069064156979108 
-0.08601329677428583 
-0.15006125984995664 
-0.17421752483487996 
-0.11744550725274093 
-0.07897930413299802 
-0.04387544940095762 
-0.017995401255174535 
0.05252865867835531 
0.11069064156979108 
-0.08601329677428583 
-0.08601329677428583 
-0.15006125984995664 
-0.21410922292562742 
-0.17421752483487996 
-0.13432582674413246 
-0.11744550725274093 
-0.1005651877613494 
-0.07897930413299802 
-0.057393420504646624 
-0.04387544940095762 
-0.03035747829726861 
-0.017995401255174535 
-0.005633324213080462 
0.05252865867835531 
0.11069064156979108 
0.11069064156979108 
</DataArray>
<DataArray type="Float64" Name="Nodal_sigma_xy" NumberOfComponents="1" format="ascii" >
0.3820755497198078 
0.3820755497198078 
0.4129070200952669 
0.443738490470726 
0.43232913231459663 
0.42091977415846726 
0.41797669112622643 
0.4150336080939856 
0.41009662618664844 
0.4051596442793112 
0.4014278487650985 
0.39769605325088575 
0.3952155434044302 
0.39273503355797473 
0.390649539572848 
0.3885640455877213 
0.3885640455877213 
0.3820755497198078 
0.4129070200952669 
0.43232913231459663 
0.41797669112622643 
0.41009662618664844 
0.4014278487650985 
0.3952155434044302 
0.390649539572848 
0.3885640455877213 
0.3820755497198078 
0.3820755497198078 
0.4129070200952669 
0.443738490470726 
0.43232913231459663 
0.42091977415846726 
0.41797669112622643 
0.4150336080939856 
0.41009662618664844 
0.4051596442793112 
0.4014278487650985 
0.39769605325088575 
0.3952155434044302 
0.39273503355797473 
0.390649539572848 
0.3885640455877213 
0.3885640455877213 
</DataArray>
</PointData>
<CellData>
</CellData>
<Points>
<DataArray type="Float64" Name="Points" NumberOfComponents="3" format="ascii">
0.0 0.0 0.0
0.5 0.0 0.0
1.0 0.0 0.0
1.5 0.0 0.0
2.0 0.0 0.0
2.5 0.0 0.0
3.0 0.0 0.0
3.5 0.0 0.0
4.0 0.0 0.0
4.5 0.0 0.0
5.0 0.0 0.0
5.5 0.0 0.0
6.0 0.0 0.0
6.5 0.0 0.0
7.0 0.0 0.0
7.5 0.0 0.0
8.0 0.0 0.0
0.0 0.25 0.0
1.0 0.25 0.0
2.0 0.25 0.0
3.0 0.25 0.0
4.0 0.25 0.0
5.0 0.25 0.0
6.0 0.25 0.0
7.0 0.25 0.0
8.0 0.25 0.0
0.0 0.5 0.0
0.5 0.5 0.0
1.0 0.5 0.0
1.5 0.5 0.0
2.0 0.5 0.0
2.5 0.5 0.0
3.0 0.5 0.0
3.5 0.5 0.0
4.0 0.5 0.0
4.5 0.5 0.0
5.0 0.5 0.0
5.5 0.5 0.0
6.0 0.5 0.0
6.5 0.5 0.0
7.0 0.5 0.0
7.5 0.5 0.0
8.0 0.5 0.0
</DataArray>
</Points>
<Cells>
<DataArray type="Int64" Name="connectivity" format="ascii">
0 2 28 26 
2 4 30 28 
4 6 32 30 
6 8 34 32 
8 10 36 34 
10 12 38 36 
12 14 40 38 
14 16 42 40 
</DataArray>
<DataArray type="Int64" Name="offsets" format="ascii">
8
16
24
32
40
48
56
64
</DataArray>
<DataArray type="UInt8" Name="types" format="ascii" RangeMin="9" RangeMax="9">
9
9
9
9
9
9
9
9
</DataArray>
</Cells>
</Piece>
</UnstructuredGrid>
</VTKFile>
