<?xml version="1.0"?>
<VTKFile type="UnstructuredGrid" version="0.1" byte_order="LittleEndian" compressor="vtkZLibDataCompressor">
<UnstructuredGrid>
<Piece NumberOfPoints="43" NumberOfCells="8">
<PointData>
<DataArray type="Float64" Name="displacement" NumberOfComponents="3" format="ascii" >
0.0 0.0  0.
0.006857561285256077 0.00769313620079965  0.
0.014176592233386137 0.030540891823575347  0.
0.02054876869671816 0.06899942970553097  0.
0.0247113018151062 0.12261561236284257  0.
0.02648895834460297 0.189573857428359  0.
0.026092578586188676 0.2686602888023351  0.
0.02323674377621469 0.3586285636581538  0.
0.01798826411190606 0.45843280038784806  0.
0.010281983429963832 0.5667678059392539  0.
0.0003904719418588276 0.6825555926523937  0.
-0.011670346221080968 0.804579222567581  0.
-0.025546480772024205 0.9317871105518694  0.
-0.0411528790555818 1.0629984597219162  0.
-0.058066825385409616 1.1971527327027351  0.
-0.0761390642947725 1.3331560091988772  0.
-0.09491811878314739 1.4699080570792105  0.
0.0 0.0  0.
-0.0006480067953906013 0.028704628671067496  0.
-0.004982413655258548 0.11997488000153275  0.
-0.015576113006070104 0.2643598349086533  0.
-0.03347568365641788 0.45245579040831785  0.
-0.058571641114289176 0.6750334580491791  0.
-0.0898001335071513 0.9230768092807143  0.
-0.12542514500514718 1.1877673699334181  0.
-0.16328279782641794 1.460432616325351  0.
0.0 0.0  0.
-0.007132393676539534 0.007506677724571388  0.
-0.015558160825522685 0.02958411300282857  0.
-0.024985586225342832 0.06691494645014395  0.
-0.0349164546389934 0.11896751685376929  0.
-0.045542634023391614 0.18436012317001618  0.
-0.05749250175749724 0.26156812243579564  0.
-0.07066324585645002 0.34972527338963527  0.
-0.08518975611731575 0.4476284281885088  0.
-0.10085326814270143 0.5542513982390508  0.
-0.11774386934581421 0.6683687691479239  0.
-0.13553609703943478 0.7889815586511464  0.
-0.15420619318478848 0.9149286525521106  0.
-0.1733415696139694 1.0451940213172755  0.
-0.19285472044609564 1.1786364228659578  0.
-0.2123080161744598 1.3142324876203997  0.
-0.23167581667392423 1.4509874505399118  0.
</DataArray>
<DataArray type="Float64" Name="Nodal_sigma_xx" NumberOfComponents="1" format="ascii" >
-0.03347108803300496 
-0.03347108803300496 
-0.02776085360987748 
-0.022050619186749998 
-0.007875899518179057 
0.006298820150391885 
0.014319033402623006 
0.02233924665485413 
0.03019973808289528 
0.03806022951093643 
0.04341610922747513 
0.048771988944013835 
0.05278679775648245 
0.056801606568951064 
0.06293474133032981 
0.06906787609170854 
0.06906787609170854 
-0.03347108803300496 
-0.02776085360987748 
-0.007875899518179057 
0.014319033402623006 
0.03019973808289528 
0.04341610922747513 
0.05278679775648245 
0.06293474133032981 
0.06906787609170854 
-0.03347108803300496 
-0.03347108803300496 
-0.02776085360987748 
-0.022050619186749998 
-0.007875899518179057 
0.006298820150391885 
0.014319033402623006 
0.02233924665485413 
0.03019973808289528 
0.03806022951093643 
0.04341610922747513 
0.048771988944013835 
0.05278679775648245 
0.056801606568951064 
0.06293474133032981 
0.06906787609170854 
0.06906787609170854 
</DataArray>
<DataArray type="Float64" Name="Nodal_sigma_yy" NumberOfComponents="1" format="ascii" >
-0.028887963377304704 
-0.028887963377304704 
-0.050677973642453855 
-0.072467983907603 
-0.05930212718812773 
-0.046136270468652464 
-0.040588866169793944 
-0.035041461870935424 
-0.02767534167199663 
-0.020309221473057838 
-0.0156073899896047 
-0.010905558506151559 
-0.005213916136637046 
0.0004777262328774666 
0.03344838328844883 
0.0664190403440202 
0.0664190403440202 
-0.028887963377304704 
-0.050677973642453855 
-0.05930212718812773 
-0.040588866169793944 
-0.02767534167199663 
-0.0156073899896047 
-0.005213916136637046 
0.03344838328844883 
0.0664190403440202 
-0.028887963377304704 
-0.028887963377304704 
-0.050677973642453855 
-0.072467983907603 
-0.05930212718812773 
-0.046136270468652464 
-0.040588866169793944 
-0.035041461870935424 
-0.02767534167199663 
-0.020309221473057838 
-0.0156073899896047 
-0.010905558506151559 
-0.005213916136637046 
0.0004777262328774666 
0.03344838328844883 
0.0664190403440202 
0.0664190403440202 
</DataArray>
<DataArray type="Float64" Name="Nodal_sigma_xy" NumberOfComponents="1" format="ascii" >
0.20937309504048462 
0.20937309504048462 
0.22805581552613047 
0.2467385360117763 
0.24138304635669638 
0.2360275567016165 
0.23626306142883602 
0.23649856615605555 
0.23534874950277018 
0.23419893284948484 
0.2334934801493424 
0.23278802744919996 
0.23235249306460437 
0.23191695868000875 
0.23118469788333668 
0.23045243708666457 
0.23045243708666457 
0.20937309504048462 
0.22805581552613047 
0.24138304635669638 
0.23626306142883602 
0.23534874950277018 
0.2334934801493424 
0.23235249306460437 
0.23118469788333668 
0.23045243708666457 
0.20937309504048462 
0.20937309504048462 
0.22805581552613047 
0.2467385360117763 
0.24138304635669638 
0.2360275567016165 
0.23626306142883602 
0.23649856615605555 
0.23534874950277018 
0.23419893284948484 
0.2334934801493424 
0.23278802744919996 
0.23235249306460437 
0.23191695868000875 
0.23118469788333668 
0.23045243708666457 
0.23045243708666457 
</DataArray>
</PointData>
<CellData>
</CellData>
<Points>
<DataArray type="Float64" Name="Points" NumberOfComponents="3" format="ascii">
0.0 0.0 0.0
0.5 0.0 0.0
1.0 0.0 0.0
1.5 0.0 0.0
2.0 0.0 0.0
2.5 0.0 0.0
3.0 0.0 0.0
3.5 0.0 0.0
4.0 0.0 0.0
4.5 0.0 0.0
5.0 0.0 0.0
5.5 0.0 0.0
6.0 0.0 0.0
6.5 0.0 0.0
7.0 0.0 0.0
7.5 0.0 0.0
8.0 0.0 0.0
0.0 0.25 0.0
1.0 0.25 0.0
2.0 0.25 0.0
3.0 0.25 0.0
4.0 0.25 0.0
5.0 0.25 0.0
6.0 0.25 0.0
7.0 0.25 0.0
8.0 0.25 0.0
0.0 0.5 0.0
0.5 0.5 0.0
1.0 0.5 0.0
1.5 0.5 0.0
2.0 0.5 0.0
2.5 0.5 0.0
3.0 0.5 0.0
3.5 0.5 0.0
4.0 0.5 0.0
4.5 0.5 0.0
5.0 0.5 0.0
5.5 0.5 0.0
6.0 0.5 0.0
6.5 0.5 0.0
7.0 0.5 0.0
7.5 0.5 0.0
8.0 0.5 0.0
</DataArray>
</Points>
<Cells>
<DataArray type="Int64" Name="connectivity" format="ascii">
0 2 28 26 
2 4 30 28 
4 6 32 30 
6 8 34 32 
8 10 36 34 
10 12 38 36 
12 14 40 38 
14 16 42 40 
</DataArray>
<DataArray type="Int64" Name="offsets" format="ascii">
8
16
24
32
40
48
56
64
</DataArray>
<DataArray type="UInt8" Name="types" format="ascii" RangeMin="9" RangeMax="9">
9
9
9
9
9
9
9
9
</DataArray>
</Cells>
</Piece>
</UnstructuredGrid>
</VTKFile>
