<?xml version="1.0"?>
<VTKFile type="UnstructuredGrid" version="0.1" byte_order="LittleEndian" compressor="vtkZLibDataCompressor">
<UnstructuredGrid>
<Piece NumberOfPoints="43" NumberOfCells="8">
<PointData>
<DataArray type="Float64" Name="displacement" NumberOfComponents="3" format="ascii" >
0.0 0.0  0.
0.0006540523539459886 0.0007115074417783555  0.
0.0013887329240868356 0.002820381437274684  0.
0.0021200599267263975 0.0063829789502255225  0.
0.0027627318341624705 0.011360432320545587  0.
0.0033143363027106584 0.01760484912364002  0.
0.003813902078575941 0.024995770078462255  0.
0.0042402420580630595 0.03343636273098988  0.
0.0046032187728413465 0.04282617862245495  0.
0.004888007425566498 0.053056099952437555  0.
0.005113239181645465 0.06402041912265982  0.
0.005263864083414655 0.07561361175458418  0.
0.005357648962641201 0.08773134351545656  0.
0.005380129913137432 0.10026721229356664  0.
0.005349240967553235 0.11311465152588308  0.
0.005253734270872898 0.12617178710862853  0.
0.005110435066433368 0.1393265651052449  0.
0.0 0.0  0.
-5.689799999637495e-06 0.0026887393098770245  0.
-4.3903784876296303e-05 0.01126646488188716  0.
-0.00013776425050908433 0.024891749949569775  0.
-0.00029719303250105964 0.04272178945009685  0.
-0.0005219112436185555 0.06391427163289871  0.
-0.000802886231953038 0.08762697823803836  0.
-0.0011252982847570663 0.11301785828889292  0.
-0.0014700398880587392 0.13924501599243239  0.
0.0 0.0  0.
-0.0006564626946795512 0.0007098722395347645  0.
-0.0014008634217137375 0.0028119665652944757  0.
-0.0021590896430007684 0.006364609437214769  0.
-0.0028526745416814383 0.011328195199617785  0.
-0.003482562137525831 0.01755866959548031  0.
-0.004091649651221036 0.024932773732497554  0.
-0.004660537647031142 0.03335707434346852  0.
-0.005199884079974956 0.04272969352130407  0.
-0.00569362439001724 0.052944045565683925  0.
-0.006158946729568822 0.06389307495852575  0.
-0.006577934011378395 0.07547324415218451  0.
-0.006965045239688627 0.08757937328947193  0.
-0.007300881692995148 0.10010626400331807  0.
-0.0075997769834823675 0.11294786578924787  0.
-0.007844814825588775 0.12599888834525758  0.
-0.008055559236289327 0.13916865302837753  0.
</DataArray>
<DataArray type="Float64" Name="Nodal_sigma_xx" NumberOfComponents="1" format="ascii" >
-0.0002949683075197878 
-0.0002949683075197878 
-0.00024775299190622 
-0.00020053767629265212 
-7.770425668516637e-05 
4.512916292231939e-05 
0.00011474105302382451 
0.00018435294312532964 
0.0002557128676075234 
0.0003270727920897171 
0.00037107380771761456 
0.00041507482334551197 
0.0005104479268186884 
0.0006058210302918649 
0.0009587748051340008 
0.0013117285799761368 
0.0013117285799761368 
-0.0002949683075197878 
-0.00024775299190622 
-7.770425668516637e-05 
0.00011474105302382451 
0.0002557128676075234 
0.00037107380771761456 
0.0005104479268186884 
0.0009587748051340008 
0.0013117285799761368 
-0.0002949683075197878 
-0.0002949683075197878 
-0.00024775299190622 
-0.00020053767629265212 
-7.770425668516637e-05 
4.512916292231939e-05 
0.00011474105302382451 
0.00018435294312532964 
0.0002557128676075234 
0.0003270727920897171 
0.00037107380771761456 
0.00041507482334551197 
0.0005104479268186884 
0.0006058210302918649 
0.0009587748051340008 
0.0013117285799761368 
0.0013117285799761368 
</DataArray>
<DataArray type="Float64" Name="Nodal_sigma_yy" NumberOfComponents="1" format="ascii" >
-0.00025455837990255115 
-0.00025455837990255115 
-0.00044795864779380415 
-0.0006413589156850572 
-0.00052657299885383 
-0.0004117870820226029 
-0.00036426987815259965 
-0.0003167526742825964 
-0.000247307286514271 
-0.00017786189874594564 
-0.00013308035207815314 
-8.829880541036067e-05 
0.00023083624101319236 
0.0005499712874367454 
0.003473914996545903 
0.006397858705655061 
0.006397858705655061 
-0.00025455837990255115 
-0.00044795864779380415 
-0.00052657299885383 
-0.00036426987815259965 
-0.000247307286514271 
-0.00013308035207815314 
0.00023083624101319236 
0.003473914996545903 
0.006397858705655061 
-0.00025455837990255115 
-0.00025455837990255115 
-0.00044795864779380415 
-0.0006413589156850572 
-0.00052657299885383 
-0.0004117870820226029 
-0.00036426987815259965 
-0.0003167526742825964 
-0.000247307286514271 
-0.00017786189874594564 
-0.00013308035207815314 
-8.829880541036067e-05 
0.00023083624101319236 
0.0005499712874367454 
0.003473914996545903 
0.006397858705655061 
0.006397858705655061 
</DataArray>
<DataArray type="Float64" Name="Nodal_sigma_xy" NumberOfComponents="1" format="ascii" >
0.018983726103800763 
0.018983726103800763 
0.02077140929894731 
0.022559092494093855 
0.022111618818014673 
0.02166414514193549 
0.02177496964547499 
0.021885794149014492 
0.021857817226866104 
0.02182984030471772 
0.02183349797417096 
0.021837155643624203 
0.021845816279839614 
0.021854476916055025 
0.021811187394759648 
0.02176789787346427 
0.02176789787346427 
0.018983726103800763 
0.02077140929894731 
0.022111618818014673 
0.02177496964547499 
0.021857817226866104 
0.02183349797417096 
0.021845816279839614 
0.021811187394759648 
0.02176789787346427 
0.018983726103800763 
0.018983726103800763 
0.02077140929894731 
0.022559092494093855 
0.022111618818014673 
0.02166414514193549 
0.02177496964547499 
0.021885794149014492 
0.021857817226866104 
0.02182984030471772 
0.02183349797417096 
0.021837155643624203 
0.021845816279839614 
0.021854476916055025 
0.021811187394759648 
0.02176789787346427 
0.02176789787346427 
</DataArray>
</PointData>
<CellData>
</CellData>
<Points>
<DataArray type="Float64" Name="Points" NumberOfComponents="3" format="ascii">
0.0 0.0 0.0
0.5 0.0 0.0
1.0 0.0 0.0
1.5 0.0 0.0
2.0 0.0 0.0
2.5 0.0 0.0
3.0 0.0 0.0
3.5 0.0 0.0
4.0 0.0 0.0
4.5 0.0 0.0
5.0 0.0 0.0
5.5 0.0 0.0
6.0 0.0 0.0
6.5 0.0 0.0
7.0 0.0 0.0
7.5 0.0 0.0
8.0 0.0 0.0
0.0 0.25 0.0
1.0 0.25 0.0
2.0 0.25 0.0
3.0 0.25 0.0
4.0 0.25 0.0
5.0 0.25 0.0
6.0 0.25 0.0
7.0 0.25 0.0
8.0 0.25 0.0
0.0 0.5 0.0
0.5 0.5 0.0
1.0 0.5 0.0
1.5 0.5 0.0
2.0 0.5 0.0
2.5 0.5 0.0
3.0 0.5 0.0
3.5 0.5 0.0
4.0 0.5 0.0
4.5 0.5 0.0
5.0 0.5 0.0
5.5 0.5 0.0
6.0 0.5 0.0
6.5 0.5 0.0
7.0 0.5 0.0
7.5 0.5 0.0
8.0 0.5 0.0
</DataArray>
</Points>
<Cells>
<DataArray type="Int64" Name="connectivity" format="ascii">
0 2 28 26 
2 4 30 28 
4 6 32 30 
6 8 34 32 
8 10 36 34 
10 12 38 36 
12 14 40 38 
14 16 42 40 
</DataArray>
<DataArray type="Int64" Name="offsets" format="ascii">
8
16
24
32
40
48
56
64
</DataArray>
<DataArray type="UInt8" Name="types" format="ascii" RangeMin="9" RangeMax="9">
9
9
9
9
9
9
9
9
</DataArray>
</Cells>
</Piece>
</UnstructuredGrid>
</VTKFile>
