<?xml version="1.0"?>
<VTKFile type="UnstructuredGrid" version="0.1" byte_order="LittleEndian" compressor="vtkZLibDataCompressor">
<UnstructuredGrid>
<Piece NumberOfPoints="43" NumberOfCells="8">
<PointData>
<DataArray type="Float64" Name="displacement" NumberOfComponents="3" format="ascii" >
0.0 0.0  0.
0.01119693203958556 0.012863538862402454  0.
0.022650496253169405 0.0510398506443467  0.
0.0314277737702879 0.1150479103976818  0.
0.03503703805731478 0.20397528475434704  0.
0.03306798569700656 0.31449343109665384  0.
0.025639980920336588 0.44457270122561926  0.
0.012285443394753199 0.5918666612451446  0.
-0.006903581285917787 0.7546176057269399  0.
-0.0318650353480971 0.9305171548714131  0.
-0.06205259191641162 1.1178296335289657  0.
-0.09719391096476185 1.3144876043847695  0.
-0.13652127892514415 1.5188574972233015  0.
-0.1796030206908886 1.7290143873344856  0.
-0.22550163444812465 1.943361419457896  0.
-0.27366915129806124 2.160177590627098  0.
-0.3230951659678629 2.377840284186881  0.
0.0 0.0  0.
-0.0017721969484126587 0.04749427469117456  0.
-0.013553382368433113 0.19772076546598388  0.
-0.04213752857767312 0.4338421980162387  0.
-0.09006513514267046 0.73931521623193  0.
-0.15677414594248718 1.0983852554082478  0.
-0.23925282803056852 1.4962389336814643  0.
-0.33283832213530395 1.9189078677302842  0.
-0.43186886764754484 2.3530264757375137  0.
0.0 0.0  0.
-0.011950018122578895 0.012352631588325445  0.
-0.02642908126731912 0.04842961649307968  0.
-0.04352847590664252 0.1093782503408305  0.
-0.06278960132449984 0.19409371301338277  0.
-0.08474745016447492 0.30041913154403277  0.
-0.11057152456328388 0.4255075310544958  0.
-0.14021761161881743 0.5680212406505805  0.
-0.17387912522786358 0.7257945033678519  0.
-0.21115244389768212 0.8972410742262708  0.
-0.2520361374623253 1.0802439240156068  0.
-0.29586170517297117 1.2732890931496412  0.
-0.3423667973680506 1.4744566604574263  0.
-0.3906712288281635 1.6822389704758158  0.
-0.44035713719323427 1.894814029024113  0.
-0.4904528860071201 2.11068253781855  0.
-0.5406486468587295 2.32824904969762  0.
</DataArray>
<DataArray type="Float64" Name="Nodal_sigma_xx" NumberOfComponents="1" format="ascii" >
-0.0911187318003416 
-0.0911187318003416 
-0.0741698081870725 
-0.057220884573803386 
-0.017718539046760757 
0.021783806480281873 
0.04386704032568891 
0.06595027417109595 
0.08705680077392416 
0.1081633273767524 
0.12232295578555202 
0.13648258419435164 
0.14612333094988272 
0.1557640777054138 
0.16824301413497486 
0.1807219505645359 
0.1807219505645359 
-0.0911187318003416 
-0.0741698081870725 
-0.017718539046760757 
0.04386704032568891 
0.08705680077392416 
0.12232295578555202 
0.14612333094988272 
0.16824301413497486 
0.1807219505645359 
-0.0911187318003416 
-0.0911187318003416 
-0.0741698081870725 
-0.057220884573803386 
-0.017718539046760757 
0.021783806480281873 
0.04386704032568891 
0.06595027417109595 
0.08705680077392416 
0.1081633273767524 
0.12232295578555202 
0.13648258419435164 
0.14612333094988272 
0.1557640777054138 
0.16824301413497486 
0.1807219505645359 
0.1807219505645359 
</DataArray>
<DataArray type="Float64" Name="Nodal_sigma_yy" NumberOfComponents="1" format="ascii" >
-0.07864507800846798 
-0.07864507800846798 
-0.13730369451411986 
-0.19596231101977174 
-0.15956540141271883 
-0.12316849180566591 
-0.10777285749572056 
-0.09237722318577521 
-0.07260183132448841 
-0.052826439463201605 
-0.04041257535464245 
-0.02799871124608329 
-0.016397490108716613 
-0.004796268971349934 
0.05074409058260599 
0.10628445013656192 
0.10628445013656192 
-0.07864507800846798 
-0.13730369451411986 
-0.15956540141271883 
-0.10777285749572056 
-0.07260183132448841 
-0.04041257535464245 
-0.016397490108716613 
0.05074409058260599 
0.10628445013656192 
-0.07864507800846798 
-0.07864507800846798 
-0.13730369451411986 
-0.19596231101977174 
-0.15956540141271883 
-0.12316849180566591 
-0.10777285749572056 
-0.09237722318577521 
-0.07260183132448841 
-0.052826439463201605 
-0.04041257535464245 
-0.02799871124608329 
-0.016397490108716613 
-0.004796268971349934 
0.05074409058260599 
0.10628445013656192 
0.10628445013656192 
</DataArray>
<DataArray type="Float64" Name="Nodal_sigma_xy" NumberOfComponents="1" format="ascii" >
0.3628129137324843 
0.3628129137324843 
0.3924764557557699 
0.4221399977790555 
0.4115080199225193 
0.40087604206598315 
0.3984809940251638 
0.39608594598434443 
0.39173048964022295 
0.38737503329610146 
0.3841132588398279 
0.3808514843835543 
0.37868721220089563 
0.37652294001823694 
0.37462414347175876 
0.37272534692528053 
0.37272534692528053 
0.3628129137324843 
0.3924764557557699 
0.4115080199225193 
0.3984809940251638 
0.39173048964022295 
0.3841132588398279 
0.37868721220089563 
0.37462414347175876 
0.37272534692528053 
0.3628129137324843 
0.3628129137324843 
0.3924764557557699 
0.4221399977790555 
0.4115080199225193 
0.40087604206598315 
0.3984809940251638 
0.39608594598434443 
0.39173048964022295 
0.38737503329610146 
0.3841132588398279 
0.3808514843835543 
0.37868721220089563 
0.37652294001823694 
0.37462414347175876 
0.37272534692528053 
0.37272534692528053 
</DataArray>
</PointData>
<CellData>
</CellData>
<Points>
<DataArray type="Float64" Name="Points" NumberOfComponents="3" format="ascii">
0.0 0.0 0.0
0.5 0.0 0.0
1.0 0.0 0.0
1.5 0.0 0.0
2.0 0.0 0.0
2.5 0.0 0.0
3.0 0.0 0.0
3.5 0.0 0.0
4.0 0.0 0.0
4.5 0.0 0.0
5.0 0.0 0.0
5.5 0.0 0.0
6.0 0.0 0.0
6.5 0.0 0.0
7.0 0.0 0.0
7.5 0.0 0.0
8.0 0.0 0.0
0.0 0.25 0.0
1.0 0.25 0.0
2.0 0.25 0.0
3.0 0.25 0.0
4.0 0.25 0.0
5.0 0.25 0.0
6.0 0.25 0.0
7.0 0.25 0.0
8.0 0.25 0.0
0.0 0.5 0.0
0.5 0.5 0.0
1.0 0.5 0.0
1.5 0.5 0.0
2.0 0.5 0.0
2.5 0.5 0.0
3.0 0.5 0.0
3.5 0.5 0.0
4.0 0.5 0.0
4.5 0.5 0.0
5.0 0.5 0.0
5.5 0.5 0.0
6.0 0.5 0.0
6.5 0.5 0.0
7.0 0.5 0.0
7.5 0.5 0.0
8.0 0.5 0.0
</DataArray>
</Points>
<Cells>
<DataArray type="Int64" Name="connectivity" format="ascii">
0 2 28 26 
2 4 30 28 
4 6 32 30 
6 8 34 32 
8 10 36 34 
10 12 38 36 
12 14 40 38 
14 16 42 40 
</DataArray>
<DataArray type="Int64" Name="offsets" format="ascii">
8
16
24
32
40
48
56
64
</DataArray>
<DataArray type="UInt8" Name="types" format="ascii" RangeMin="9" RangeMax="9">
9
9
9
9
9
9
9
9
</DataArray>
</Cells>
</Piece>
</UnstructuredGrid>
</VTKFile>
