<?xml version="1.0"?>
<VTKFile type="UnstructuredGrid" version="0.1" byte_order="LittleEndian" compressor="vtkZLibDataCompressor">
<UnstructuredGrid>
<Piece NumberOfPoints="43" NumberOfCells="8">
<PointData>
<DataArray type="Float64" Name="displacement" NumberOfComponents="3" format="ascii" >
0.0 0.0  0.
0.005678602449335457 0.006331594160796386  0.
0.011803452009697941 0.025133488011219368  0.
0.017293616380443244 0.056809055691225845  0.
0.021162527828574036 0.100997735337051  0.
0.023286165516877975 0.1562418830780185  0.
0.023871105181397817 0.22153516406821183  0.
0.022686976911330863 0.2958854064771685  0.
0.01979401967083872 0.37842933220381847  0.
0.015120029797335939 0.46811166259137366  0.
0.008878089925695856 0.5640358015854923  0.
0.0010506960679712153 0.6652089983588737  0.
-0.008095428430174204 0.7707515910250978  0.
-0.01852922803184878 0.8796913201971778  0.
-0.029936829970027803 0.9911363603472252  0.
-0.04223753893414883 1.1041788046496173  0.
-0.05509898908679492 1.2178896831451196  0.
0.0 0.0  0.
-0.00044132986044644854 0.023686429121683936  0.
-0.0033968157315523973 0.09907565472193255  0.
-0.010630571296483933 0.21848464570184842  0.
-0.022871455508325526 0.3742519729202236  0.
-0.040058712461846654 0.5588148915797971  0.
-0.061474138818092675 0.7647308595240689  0.
-0.0859332569749031 0.9846694278375813  0.
-0.11195137114249583 1.2113836927929653  0.
0.0 0.0  0.
-0.005865711404800671 0.006204651285691967  0.
-0.012744370611567664 0.024481556968909152  0.
-0.020316952416252025 0.05538790552642723  0.
-0.028120388065660633 0.09850856334106901  0.
-0.03628357509685193 0.15268207764966504  0.
-0.04530197015861789 0.2166888598974178  0.
-0.05507342343803611 0.28979706769998237  0.
-0.0657088755207844 0.37103519206797875  0.
-0.07703399473349652 0.4595399515005922  0.
-0.08914032616300213 0.5543132234376138  0.
-0.10177866602962175 0.654512778208014  0.
-0.1149586901215772 0.759183845064866  0.
-0.12836992484020016 0.8674677001338317  0.
-0.14197819176856805 0.9784191333024862  0.
-0.15546015853892406 1.0911724519288406  0.
-0.1688319574082826 1.2049057289016203  0.
</DataArray>
<DataArray type="Float64" Name="Nodal_sigma_xx" NumberOfComponents="1" format="ascii" >
-0.02281716212920474 
-0.02281716212920474 
-0.018992704223336727 
-0.015168246317468714 
-0.0055513834160696935 
0.004065479485329327 
0.009518165905509492 
0.014970852325689657 
0.020343521266625468 
0.025716190207561277 
0.029382689316083267 
0.03304918842460526 
0.03591355498242184 
0.03877792154023842 
0.04348943137812132 
0.04820094121600421 
0.04820094121600421 
-0.02281716212920474 
-0.018992704223336727 
-0.0055513834160696935 
0.009518165905509492 
0.020343521266625468 
0.029382689316083267 
0.03591355498242184 
0.04348943137812132 
0.04820094121600421 
-0.02281716212920474 
-0.02281716212920474 
-0.018992704223336727 
-0.015168246317468714 
-0.0055513834160696935 
0.004065479485329327 
0.009518165905509492 
0.014970852325689657 
0.020343521266625468 
0.025716190207561277 
0.029382689316083267 
0.03304918842460526 
0.03591355498242184 
0.03877792154023842 
0.04348943137812132 
0.04820094121600421 
0.04820094121600421 
</DataArray>
<DataArray type="Float64" Name="Nodal_sigma_yy" NumberOfComponents="1" format="ascii" >
-0.019692877936462187 
-0.019692877936462187 
-0.034578620555845596 
-0.049464363175229 
-0.04051771342850237 
-0.031571063681775736 
-0.02780590120689859 
-0.024040738732021442 
-0.019002609278930258 
-0.013964479825839074 
-0.010737975001997743 
-0.007511470178156411 
-0.0031507517165560092 
0.0012099667450443925 
0.02820496747142784 
0.05519996819781128 
0.05519996819781128 
-0.019692877936462187 
-0.034578620555845596 
-0.04051771342850237 
-0.02780590120689859 
-0.019002609278930258 
-0.010737975001997743 
-0.0031507517165560092 
0.02820496747142784 
0.05519996819781128 
-0.019692877936462187 
-0.019692877936462187 
-0.034578620555845596 
-0.049464363175229 
-0.04051771342850237 
-0.031571063681775736 
-0.02780590120689859 
-0.024040738732021442 
-0.019002609278930258 
-0.013964479825839074 
-0.010737975001997743 
-0.007511470178156411 
-0.0031507517165560092 
0.0012099667450443925 
0.02820496747142784 
0.05519996819781128 
0.05519996819781128 
</DataArray>
<DataArray type="Float64" Name="Nodal_sigma_xy" NumberOfComponents="1" format="ascii" >
0.1711878340333588 
0.1711878340333588 
0.18671357387622245 
0.2022393137190861 
0.19797588383168394 
0.19371245394428177 
0.19415947368788541 
0.19460649343148906 
0.19388340868106885 
0.19316032393064864 
0.19277441898089354 
0.19238851403113844 
0.19216703010121464 
0.19194554617129084 
0.191409945463289 
0.1908743447552871 
0.1908743447552871 
0.1711878340333588 
0.18671357387622245 
0.19797588383168394 
0.19415947368788541 
0.19388340868106885 
0.19277441898089354 
0.19216703010121464 
0.191409945463289 
0.1908743447552871 
0.1711878340333588 
0.1711878340333588 
0.18671357387622245 
0.2022393137190861 
0.19797588383168394 
0.19371245394428177 
0.19415947368788541 
0.19460649343148906 
0.19388340868106885 
0.19316032393064864 
0.19277441898089354 
0.19238851403113844 
0.19216703010121464 
0.19194554617129084 
0.191409945463289 
0.1908743447552871 
0.1908743447552871 
</DataArray>
</PointData>
<CellData>
</CellData>
<Points>
<DataArray type="Float64" Name="Points" NumberOfComponents="3" format="ascii">
0.0 0.0 0.0
0.5 0.0 0.0
1.0 0.0 0.0
1.5 0.0 0.0
2.0 0.0 0.0
2.5 0.0 0.0
3.0 0.0 0.0
3.5 0.0 0.0
4.0 0.0 0.0
4.5 0.0 0.0
5.0 0.0 0.0
5.5 0.0 0.0
6.0 0.0 0.0
6.5 0.0 0.0
7.0 0.0 0.0
7.5 0.0 0.0
8.0 0.0 0.0
0.0 0.25 0.0
1.0 0.25 0.0
2.0 0.25 0.0
3.0 0.25 0.0
4.0 0.25 0.0
5.0 0.25 0.0
6.0 0.25 0.0
7.0 0.25 0.0
8.0 0.25 0.0
0.0 0.5 0.0
0.5 0.5 0.0
1.0 0.5 0.0
1.5 0.5 0.0
2.0 0.5 0.0
2.5 0.5 0.0
3.0 0.5 0.0
3.5 0.5 0.0
4.0 0.5 0.0
4.5 0.5 0.0
5.0 0.5 0.0
5.5 0.5 0.0
6.0 0.5 0.0
6.5 0.5 0.0
7.0 0.5 0.0
7.5 0.5 0.0
8.0 0.5 0.0
</DataArray>
</Points>
<Cells>
<DataArray type="Int64" Name="connectivity" format="ascii">
0 2 28 26 
2 4 30 28 
4 6 32 30 
6 8 34 32 
8 10 36 34 
10 12 38 36 
12 14 40 38 
14 16 42 40 
</DataArray>
<DataArray type="Int64" Name="offsets" format="ascii">
8
16
24
32
40
48
56
64
</DataArray>
<DataArray type="UInt8" Name="types" format="ascii" RangeMin="9" RangeMax="9">
9
9
9
9
9
9
9
9
</DataArray>
</Cells>
</Piece>
</UnstructuredGrid>
</VTKFile>
