<?xml version="1.0"?>
<VTKFile type="UnstructuredGrid" version="0.1" byte_order="LittleEndian" compressor="vtkZLibDataCompressor">
<UnstructuredGrid>
<Piece NumberOfPoints="43" NumberOfCells="8">
<PointData>
<DataArray type="Float64" Name="displacement" NumberOfComponents="3" format="ascii" >
0.0 0.0  0.
0.01068827208998936 0.01224372779516214  0.
0.021679645940275626 0.04858708882441067  0.
0.030246315732058954 0.10955402275104001  0.
0.034057559742064154 0.19429820431969427  0.
0.03273301807879514 0.2996854312845192  0.
0.026410692840880687 0.42378798798321904  0.
0.01464081178480842 0.5644022690872901  0.
-0.0024887448718598 0.7198581495442639  0.
-0.02494045603481632 0.8879709371057622  0.
-0.05220508900685779 1.067081218547454  0.
-0.08405187432867964 1.255221960797305  0.
-0.11976895061298966 1.4508229194081488  0.
-0.15897713608066635 1.6520427800873916  0.
-0.20080767107205433 1.8573394705785022  0.
-0.2447704432868202 2.0650590392843586  0.
-0.28992889160384394 2.2736300113268495  0.
0.0 0.0  0.
-0.0016099604861878412 0.04526489931143676  0.
-0.012321977148519762 0.18854647885092038  0.
-0.03833896768281911 0.41395858957707793  0.
-0.08200922116849406 0.7058630339529323  0.
-0.14285410641606938 1.0493040534276228  0.
-0.2181487375697471 1.430143996538735  0.
-0.30364419652763436 1.8349829053792581  0.
-0.3941631084251596 2.2509494558106877  0.
0.0 0.0  0.
-0.011372225643561173 0.011779717507942194  0.
-0.025112291456202376 0.04621498690350695  0.
-0.04124353473366815 0.10439939929443749  0.
-0.059289660123939734 0.18530901355611776  0.
-0.07973650406846147 0.28687598181003143  0.
-0.10368767197257428 0.4064259815250348  0.
-0.13108747807527893 0.5426757836044646  0.
-0.1621263603753193 0.6935818496184645  0.
-0.19642421683229164 0.8576207064214044  0.
-0.23399834385484578 1.032783815597428  0.
-0.2742251860379886 1.217612308919868  0.
-0.31687996384404093 1.4102740707265355  0.
-0.3611438588870126 1.6093112339799653  0.
-0.40664815326828635 1.8129768143737564  0.
-0.4524916943875846 2.0198176646388033  0.
-0.4984080237698554 2.2283043822676443  0.
</DataArray>
<DataArray type="Float64" Name="Nodal_sigma_xx" NumberOfComponents="1" format="ascii" >
-0.08283014076044162 
-0.08283014076044162 
-0.06760382023821658 
-0.05237749971599154 
-0.016583816471527117 
0.019209866772937307 
0.039255523797911425 
0.059301180822885546 
0.07852629139252945 
0.09775140196217336 
0.11068063739832615 
0.12360987283447894 
0.13249253962161667 
0.1413752064087544 
0.15302967170642728 
0.16468413700410017 
0.16468413700410017 
-0.08283014076044162 
-0.06760382023821658 
-0.016583816471527117 
0.039255523797911425 
0.07852629139252945 
0.11068063739832615 
0.13249253962161667 
0.15302967170642728 
0.16468413700410017 
-0.08283014076044162 
-0.08283014076044162 
-0.06760382023821658 
-0.05237749971599154 
-0.016583816471527117 
0.019209866772937307 
0.039255523797911425 
0.059301180822885546 
0.07852629139252945 
0.09775140196217336 
0.11068063739832615 
0.12360987283447894 
0.13249253962161667 
0.1413752064087544 
0.15302967170642728 
0.16468413700410017 
0.16468413700410017 
</DataArray>
<DataArray type="Float64" Name="Nodal_sigma_yy" NumberOfComponents="1" format="ascii" >
-0.07149018208297127 
-0.07149018208297127 
-0.12489813713820361 
-0.17830609219343593 
-0.14528959696114352 
-0.11227310172885113 
-0.09831304277453598 
-0.08435298382022083 
-0.06634243781539068 
-0.04833189181056053 
-0.03699944662363508 
-0.025667001436709632 
-0.014827232701958981 
-0.003987463967208332 
0.04888192154397925 
0.10175130705516684 
0.10175130705516684 
-0.07149018208297127 
-0.12489813713820361 
-0.14528959696114352 
-0.09831304277453598 
-0.06634243781539068 
-0.03699944662363508 
-0.014827232701958981 
0.04888192154397925 
0.10175130705516684 
-0.07149018208297127 
-0.07149018208297127 
-0.12489813713820361 
-0.17830609219343593 
-0.14528959696114352 
-0.11227310172885113 
-0.09831304277453598 
-0.08435298382022083 
-0.06634243781539068 
-0.04833189181056053 
-0.03699944662363508 
-0.025667001436709632 
-0.014827232701958981 
-0.003987463967208332 
0.04888192154397925 
0.10175130705516684 
0.10175130705516684 
</DataArray>
<DataArray type="Float64" Name="Nodal_sigma_xy" NumberOfComponents="1" format="ascii" >
0.3435688226031757 
0.3435688226031757 
0.3720172342787021 
0.40046564595422846 
0.39058321047251277 
0.380700774990797 
0.3788037669535047 
0.3769067589162124 
0.373092127927548 
0.3692774969388835 
0.3664524629185508 
0.3636274288982182 
0.361757653334678 
0.3598878777711379 
0.3581673360994716 
0.35644679442780536 
0.35644679442780536 
0.3435688226031757 
0.3720172342787021 
0.39058321047251277 
0.3788037669535047 
0.373092127927548 
0.3664524629185508 
0.361757653334678 
0.3581673360994716 
0.35644679442780536 
0.3435688226031757 
0.3435688226031757 
0.3720172342787021 
0.40046564595422846 
0.39058321047251277 
0.380700774990797 
0.3788037669535047 
0.3769067589162124 
0.373092127927548 
0.3692774969388835 
0.3664524629185508 
0.3636274288982182 
0.361757653334678 
0.3598878777711379 
0.3581673360994716 
0.35644679442780536 
0.35644679442780536 
</DataArray>
</PointData>
<CellData>
</CellData>
<Points>
<DataArray type="Float64" Name="Points" NumberOfComponents="3" format="ascii">
0.0 0.0 0.0
0.5 0.0 0.0
1.0 0.0 0.0
1.5 0.0 0.0
2.0 0.0 0.0
2.5 0.0 0.0
3.0 0.0 0.0
3.5 0.0 0.0
4.0 0.0 0.0
4.5 0.0 0.0
5.0 0.0 0.0
5.5 0.0 0.0
6.0 0.0 0.0
6.5 0.0 0.0
7.0 0.0 0.0
7.5 0.0 0.0
8.0 0.0 0.0
0.0 0.25 0.0
1.0 0.25 0.0
2.0 0.25 0.0
3.0 0.25 0.0
4.0 0.25 0.0
5.0 0.25 0.0
6.0 0.25 0.0
7.0 0.25 0.0
8.0 0.25 0.0
0.0 0.5 0.0
0.5 0.5 0.0
1.0 0.5 0.0
1.5 0.5 0.0
2.0 0.5 0.0
2.5 0.5 0.0
3.0 0.5 0.0
3.5 0.5 0.0
4.0 0.5 0.0
4.5 0.5 0.0
5.0 0.5 0.0
5.5 0.5 0.0
6.0 0.5 0.0
6.5 0.5 0.0
7.0 0.5 0.0
7.5 0.5 0.0
8.0 0.5 0.0
</DataArray>
</Points>
<Cells>
<DataArray type="Int64" Name="connectivity" format="ascii">
0 2 28 26 
2 4 30 28 
4 6 32 30 
6 8 34 32 
8 10 36 34 
10 12 38 36 
12 14 40 38 
14 16 42 40 
</DataArray>
<DataArray type="Int64" Name="offsets" format="ascii">
8
16
24
32
40
48
56
64
</DataArray>
<DataArray type="UInt8" Name="types" format="ascii" RangeMin="9" RangeMax="9">
9
9
9
9
9
9
9
9
</DataArray>
</Cells>
</Piece>
</UnstructuredGrid>
</VTKFile>
