<?xml version="1.0"?>
<VTKFile type="UnstructuredGrid" version="0.1" byte_order="LittleEndian" compressor="vtkZLibDataCompressor">
<UnstructuredGrid>
<Piece NumberOfPoints="714" NumberOfCells="650">
<PointData>
<DataArray type="Float64" Name="displacement" NumberOfComponents="3" format="ascii" >
0.0 0.0  0.
0.0 0.0  0.
0.0 0.0  0.
0.0 0.0  0.
0.0 0.0  0.
0.0 0.0  0.
0.0 0.0  0.
0.0 0.0  0.
0.0 0.0  0.
0.0 0.0  0.
0.0 0.0  0.
0.0 0.0  0.
0.0 0.0  0.
0.0 0.0  0.
0.015605642916246054 -0.01911085463483709  0.
0.009370111942718395 -0.01042291595762379  0.
0.007119577774924306 -0.0056533134994761385  0.
0.0052510469936121905 -0.002677599953421819  0.
0.0036623979646694766 -0.0007353672965326033  0.
0.0021884794614113914 0.0004955232759893736  0.
0.0007734986506284816 0.001170855067340789  0.
-0.000623323943669138 0.0013544070371958729  0.
-0.0020353037126605543 0.0010468214229045413  0.
-0.003503061154329577 0.00018590900008508903  0.
-0.005081100279103141 -0.001381654624648972  0.
-0.0069325319786150905 -0.00397142285393067  0.
-0.009141954105888363 -0.008338537790922215  0.
-0.015170356065175894 -0.016513023739927506  0.
0.030052410552760207 -0.02834195249577736  0.
0.02207857215590326 -0.02049456851574552  0.
0.016369976298477987 -0.013823567885241979  0.
0.012090264016598554 -0.00904508432433741  0.
0.008399664493307538 -0.0057002239280144334  0.
0.005039356833629346 -0.003500143576754248  0.
0.001840334414894218 -0.002270483377090837  0.
-0.0013078560970252947 -0.001932320784349899  0.
-0.0045034446832589465 -0.00248725138296205  0.
-0.007856667491199055 -0.004018294419175602  0.
-0.01153581314623543 -0.006707121931549777  0.
-0.015794082357440307 -0.010858644459313314  0.
-0.021448313795876053 -0.016968056590611496  0.
-0.02932457888536039 -0.024371234856660474  0.
0.04355881790086534 -0.03800516942315538  0.
0.034412341779471264 -0.030130471445849866  0.
0.026486118845744953 -0.023308609796656398  0.
0.019737005222499562 -0.01781586941104567  0.
0.013793250432336857 -0.013736252603272906  0.
0.008315444179273788 -0.01094590912580579  0.
0.0030878034027949962 -0.009345604107141768  0.
-0.0020622942797675287 -0.008883718692682417  0.
-0.007291789926116794 -0.009566419968231555  0.
-0.01277497186952191 -0.011459557353909511  0.
-0.01873090223323507 -0.01468295853271281  0.
-0.025505140741605967 -0.019393059885388135  0.
-0.033485348235760604 -0.025551961764849203  0.
-0.04274767126271467 -0.03292736377053579  0.
0.056947016933433674 -0.04881799431173548  0.
0.04632007359750375 -0.04103468790136525  0.
0.036494470576243235 -0.03423226190610559  0.
0.027582982347702806 -0.028600492752447505  0.
0.019419128702839704 -0.02423722730138215  0.
0.0117667530538532 -0.021162791918680722  0.
0.004400981712921601 -0.019352976182559094  0.
-0.0028761470498648266 -0.01879340964055889  0.
-0.010256199136474228 -0.019494606956968984  0.
-0.01794144217936991 -0.02149377405463867  0.
-0.026166648677186516 -0.024843155091120433  0.
-0.03518621090853593 -0.029557544977207657  0.
-0.04519681127377701 -0.03557908053486168  0.
-0.056127098259164586 -0.04276917276416057  0.
0.07016308439990684 -0.061407615503440836  0.
0.05785960878342744 -0.053690394243588194  0.
0.04620267694928167 -0.046981220545000826  0.
0.03527824315924802 -0.04137009663815905  0.
0.025002867928335788 -0.036949719827790134  0.
0.015205685489867109 -0.033771030473232246  0.
0.005690720957463896 -0.03185649944749803  0.
-0.003740800776083805 -0.0312169173540093  0.
-0.013287825654425864 -0.03186545387758353  0.
-0.023155721502582823 -0.033818713296459434  0.
-0.03355472489094111 -0.03708437132539295  0.
-0.044679480146002266 -0.04164475959930595  0.
-0.05664870911655903 -0.047444450968184886  0.
-0.06942518649883064 -0.05444011422783375  0.
0.08314790452745657 -0.07596926565685548  0.
0.06905687334367101 -0.06832357322549046  0.
0.05556746944181112 -0.061707691951606025  0.
0.04270462369283042 -0.05616885697835941  0.
0.030401398739165177 -0.051772688348734545  0.
0.018522882862585875 -0.04857382822059639  0.
0.006898727154890978 -0.046608137433148615  0.
-0.004656065061047785 -0.045898166836210244  0.
-0.01633262192126834 -0.04645799484640035  0.
-0.028323643052076464 -0.04829365856933595  0.
-0.0408155618821148 -0.051398936023424775  0.
-0.053968847063013005 -0.05575023871305194  0.
-0.06788717190024612 -0.06131529622564894  0.
-0.08259627801673829 -0.06808583720745096  0.
0.09583590768700159 -0.09257301731225806  0.
0.07991415699729792 -0.08500009408364628  0.
0.06458627352420183 -0.07846928755599474  0.
0.04982568241600791 -0.07300628240459658  0.
0.035558387540692946 -0.0686566651733647  0.
0.021664178512682587 -0.06546585113562212  0.
0.007991332520931071 -0.0634698001024603  0.
-0.005629459597493926 -0.06269299185652562  0.
-0.019375276867525375 -0.06314921570120832  0.
-0.033423364316142117 -0.06484164867286785  0.
-0.047941721624006436 -0.0677621941677104  0.
-0.06307587520909752 -0.07189359473940858  0.
-0.07893550944866196 -0.07721919870346557  0.
-0.09559578726251697 -0.0837437730169008  0.
0.10818053334157127 -0.11122104156742824  0.
0.0904233639335507 -0.10372088581927373  0.
0.07326252660585664 -0.0972643422829088  0.
0.05663541970226847 -0.09186746013509539  0.
0.04045558350442273 -0.08756164874826458  0.
0.02460708555344354 -0.08438194410460644  0.
0.008949850498584768 -0.08235887695527787  0.
-0.006671894077468152 -0.08151471853197895  0.
-0.022421518830802397 -0.08186226552454184  0.
-0.03846245326053911 -0.08340475527202167  0.
-0.0549503375471662 -0.08613691054075258  0.
-0.07202496404519144 -0.09004852646893238  0.
-0.0898058571094975 -0.09513245844134204  0.
-0.1083993129339417 -0.10139566449136533  0.
0.12014968514511291 -0.13188548292347776  0.
0.10057435289335158 -0.12445596657042178  0.
0.08159839519586112 -0.11806367851148503  0.
0.06313610002031675 -0.11272010672015036  0.
0.04508976932844253 -0.10844742167322728  0.
0.027343389062395113 -0.10527174332704467  0.
0.009763776429347393 -0.10321730243854009  0.
-0.007794711688951367 -0.10230275918553718  0.
-0.025484283364549665 -0.10253953645289059  0.
-0.04345769408934656 -0.10393164949656951  0.
-0.06186248690449774 -0.1064770337977116  0.
-0.08083641002000713 -0.11017082926156326  0.
-0.10050669020106505 -0.11501067196935147  0.
-0.12099669423194835 -0.121002174144936  0.
0.13172205464669617 -0.15452423195696646  0.
0.11035786355525172 -0.1471618565705688  0.
0.0895940901516202 -0.1408249382856019  0.
0.06933086595515198 -0.13552261797148132  0.
0.04946212715965764 -0.1312709923837605  0.
0.02987044643990214 -0.128089370678786  0.
0.010426598847574615 -0.12599636058027572  0.
-0.009007973725335969 -0.12500696272999562  0.
-0.02857721306946712 -0.12513103496516376  0.
-0.04842611837529415 -0.12637307955628288  0.
-0.06869684012915511 -0.12873334296824515  0.
-0.0895261126624238 -0.13221019377672044  0.
-0.11104569658235319 -0.13680332149985724  0.
-0.1333870816889888 -0.14251620367576961  0.
0.14288345730358584 -0.17908870127408677  0.
0.1197662803695081 -0.17178919118300465  0.
0.09724842928833136 -0.16549988252901782  0.
0.07522164768538553 -0.1602284233112017  0.
0.05357421874118262 -0.15598680557320127  0.
0.03218723377974277 -0.15278930426910253  0.
0.010933751938092876 -0.15064997668505  0.
-0.010319999956918784 -0.14958056934807473  0.
-0.03171211633987789 -0.1495893028344307  0.
-0.053382100706991426 -0.150680642241598  0.
-0.0754683260105678 -0.1528560393310682  0.
-0.09810655682846325 -0.1561154592946024  0.
-0.12143051680051019 -0.1604591727092879  0.
-0.14557471027125268 -0.16588875564817884  0.
0.15362438187802827 -0.205527558603005  0.
0.12879361758751617 -0.19828635400879324  0.
0.10455952802979222 -0.1920378836466576  0.
0.08080903101935377 -0.1867885918633494  0.
0.05742683259303438 -0.1825475393010646  0.
0.03429289600652039 -0.17932527479835675  0.
0.011281655775292818 -0.17713227917103858  0.
-0.011737455258176006 -0.17597753413853603  0.
-0.03489846522844225 -0.1758676257739088  0.
-0.058336978279725615 -0.17680651777797834  0.
-0.08218855740042444 -0.17879598354663165  0.
-0.10658780649360297 -0.18183650019669653  0.
-0.13166873885958955 -0.18592819499210442  0.
-0.15756623113345605 -0.19107119097035377  0.
0.1639383291900696 -0.23378843701205904  0.
0.13743524084797912 -0.2266010299123033  0.
0.11152526241470814 -0.2203874946719904  0.
0.08609262833669631 -0.21515313731001634  0.
0.06101990934318071 -0.21090477918480183  0.
0.0361863555000138 -0.20765013685950043  0.
0.011467303776152293 -0.20539686912325344  0.
-0.01326563319084753 -0.20415162464884684  0.
-0.038143639866689304 -0.20391940422492938  0.
-0.06329950174106144 -0.20470335097839215  0.
-0.0888665777463442 -0.206504964061489  0.
-0.11497816562442684 -0.20932458163952106  0.
-0.141767641449594 -0.21316185577467361  0.
-0.1693690517095919 -0.2180158451496741  0.
0.17382082247906602 -0.2638188806097672  0.
0.14568763094884082 -0.2566810317600993  0.
0.11814359519446418 -0.250497304171122  0.
0.09107152974768964 -0.24527185679469296  0.
0.06435281562755364 -0.241009679729515  0.
0.03786633832078371 -0.23771624764368787  0.
0.011488098242067663 -0.2353969402450477  0.
-0.014908758409274681 -0.23405641570023847  0.
-0.04145338191423913 -0.2336981647329907  0.
-0.06827646095558118 -0.2343243267226708  0.
-0.09550956104507527 -0.23593576995974697  0.
-0.12328463778571908 -0.23853233173278254  0.
-0.15173401130148584 -0.24211304897539954  0.
-0.18099047181973538 -0.24667617807495637  0.
0.1832686941472461 -0.29556650846556864  0.
0.15354809908364386 -0.2884743803487035  0.
0.12441269334795764 -0.2823160434557041  0.
0.09574460149066438 -0.27709448674586157  0.
0.06742460957816872 -0.27281311427564  0.
0.0393314922548496 -0.2694755441438145  0.
0.011341792562956685 -0.2670852558823701  0.
-0.016670212739181046 -0.26564517777013796  0.
-0.04483216930989475 -0.2651573771778807  0.
-0.07327315605646158 -0.2656229066461559  0.
-0.10212324866001393 -0.2670418130099058  0.
-0.13151311812115904 -0.2694132462214564  0.
-0.1615739143311213 -0.2727355733325521  0.
-0.19243712921841433 -0.27700639606787003  0.
0.19227973886865754 -0.3289792924575759  0.
0.16101466210121615 -0.32192952612303677  0.
0.13033104753095467 -0.3157928270252188  0.
0.10011074042158727 -0.31057099867462734  0.
0.07023429146757962 -0.3062660125828084  0.
0.040580531856834294 -0.30287988385734055  0.
0.011026481409067 -0.3004144548981549  0.
-0.018552707468233114 -0.2988711205126066  0.
-0.04828352576396814 -0.29825061313099327  0.
-0.07829378053045277 -0.2985528791623362  0.
-0.10871229835746894 -0.29977705691850565  0.
-0.13966858111622746 -0.3019215215571432  0.
-0.17129265608555125 -0.30498394915157456  0.
-0.20371484070517523 -0.308961352449665  0.
0.20085246041750662 -0.36400557340266054  0.
0.16808591634797945 -0.3569953292592223  0.
0.1358975051002733 -0.35087714462065844  0.
0.10416901376950585 -0.34565163498261414  0.
0.07278096454877098 -0.3413194422056666  0.
0.041612344906298594 -0.33788114984640283  0.
0.010540607892019256 -0.3353371483917073  0.
-0.02055838647904344 -0.3336874484584112  0.
-0.051810212885466125 -0.33293153167586814  0.
-0.0833416504122015 -0.3330682550415576  0.
-0.11528047577041428 -0.33409582044967245  0.
-0.14775516319541182 -0.3360117931823211  0.
-0.18089473777598655 -0.3388131481095589  0.
-0.21482851925330657 -0.3424963240744925  0.
0.20898591477548528 -0.40059401805847855  0.
0.17476095061469832 -0.39362099409600754  0.
0.14111128096855516 -0.38751880225342034  0.
0.10791874345129221 -0.3822868803599474  0.
0.07506394173980634 -0.3779246160667476  0.
0.04242607022832906 -0.3744312825405562  0.
0.009882978339854763 -0.3718059526065878  0.
-0.022688884608225605 -0.3700473682875235  0.
-0.05541434692647782 -0.36915383719198036  0.
-0.08841934341960439 -0.36912316115684995  0.
-0.1218307689916562 -0.3699526087531131  0.
-0.15577621556487597 -0.3716389262398353  0.
-0.19038384831780344 -0.3741783794911157  0.
-0.22578216612296922 -0.3775668208355491  0.
0.21667965559013366 -0.4386937687437401  0.
0.18103932322143867 -0.4317562035053586  0.
0.14597198570170541 -0.42566805994307383  0.
0.1113595748780874 -0.42042761909338827  0.
0.07708282540033189 -0.4160330750881584  0.
0.04302115543103356 -0.4124824813147087  0.
0.009052774114716248 -0.4097736941146204  0.
-0.024945369903083024 -0.4079042786030926  0.
-0.05909748625046449 -0.40687143671089765  0.
-0.09352880921477431 -0.40667195585530164  0.
-0.1283654943768684 -0.40730218890358943  0.
-0.16373438744543364 -0.4087580659146421  0.
-0.19976293176817025 -0.4110351363556045  0.
-0.23657895961817804 -0.41412864162882196  0.
0.2239336230643859 -0.4782541545049975  0.
0.18692097977664862 -0.47135082126211597  0.
0.15047958816970938 -0.4652753359807061  0.
0.1144914803941985 -0.4600248516937683  0.
0.07883753469566707 -0.45559642207708734  0.
0.04339738764536458 -0.4519869527742937  0.
0.008049569799932299 -0.4491931633321068  0.
-0.027328544264520985 -0.4472115166354657  0.
-0.06286064625814977 -0.446038169045998  0.
-0.09867138587571975 -0.4456689349021819  0.
-0.13488629986244605 -0.4460992746579488  0.
-0.17163160828558466 -0.4473243101497627  0.
-0.20903415487003424 -0.4493388675148369  0.
-0.24722123165234328 -0.4521375504233905  0.
0.23074814043899647 -0.5192247745534994  0.
0.1924062551628711 -0.5123549696768508  0.
0.15463443270585978 -0.5062912849036773  0.
0.11731479049805164 -0.5010297803709304  0.
0.08032834147441034 -0.4965664182460108  0.
0.04355492148751069 -0.49289701704128314  0.
0.006873342824095303 -0.4900172250778719  0.
-0.029838656961805 -0.4879224655117025  0.
-0.06670433430012883 -0.48660790191417563  0.
-0.10384784968822548 -0.4860684148131664  0.
-0.1413942223483699 -0.48629859693982747  0.
-0.1794691497637112 -0.4872927720759134  0.
-0.21819897863203752 -0.48904503770423685  0.
-0.25771056057624847 -0.4915493350476021  0.
0.23712392428981846 -0.5615556756058296  0.
0.19749588336668203 -0.554719202080703  0.
0.15843725397682254 -0.5486669703859306  0.
0.11983021451243961 -0.5433939865625514  0.
0.0815558915714276 -0.5388951679457203  0.
0.043494293452430485 -0.5351652993105297  0.
0.005524474189190263 -0.5321990138941379  0.
-0.03247552121629624 -0.5299907488598494  0.
-0.07062858343933322 -0.5285347216455577  0.
-0.10905846322776763 -0.5278249153323399  0.
-0.14788974693799675 -0.527855079282831  0.
-0.18724769539497424 -0.5286187505904971  0.
-0.22725824195356706 -0.5301092951504084  0.
-0.26804787362415705 -0.5323199727143394  0.
0.2430619902449957 -0.605196768991492  0.
0.2021909192720821 -0.5983939194376876  0.
0.16188912276216075 -0.5923532822766642  0.
0.12203881051680115 -0.5870688513362841  0.
0.08252119630249335 -0.5825345445841285  0.
0.04321643041297457 -0.5787441618052741  0.
0.0040037695847341005 -0.5756913709074759  0.
-0.03523848325973211 -0.5733696704917306  0.
-0.0746329123651442 -0.5717723736711516  0.
-0.11430292528443375 -0.5708925996653013  0.
-0.15437274579050364 -0.5707232780606453  0.
-0.19496726854232574 -0.5712571716144194  0.
-0.2362120799919227 -0.5724869146050475  0.
-0.27823336055948233 -0.5744050716588479  0.
0.24856375727269522 -0.6500985647034105  0.
0.2064928230295862 -0.643330100742382  0.
0.1649915100127738 -0.637301666659429  0.
0.12394203072709216 -0.6320062872102711  0.
0.08322565763665238 -0.627436925306607  0.
0.042722651879318216 -0.6235864413042996  0.
0.002312435839271984 -0.6204475830973565  0.
-0.03812647380691773 -0.6180129536142899  0.
-0.07871640576844295 -0.61627499977001  0.
-0.11958048022640627 -0.6152260082585849  0.
-0.16084261637648267 -0.6148581118920714  0.
-0.2026273997518378 -0.6151633126397433  0.
-0.24506012221876303 -0.616133516549846  0.
-0.2882666997770135 -0.6177605860997876  0.
0.25363093501232903 -0.6962113159380935  0.
0.21040336643140042 -0.6894784490263248  0.
0.1677462184695139 -0.6834632728935439  0.
0.12554167859417906 -0.6781578871392296  0.
0.08367105023822924 -0.6735543433134509  0.
0.04201467531566576 -0.6696446056683246  0.
0.0004521075885044117 -0.6664205442967923  0.
-0.041137961656974 -0.6638739061139188  0.
-0.08287764924650103 -0.6619963073029344  0.
-0.1248898347363489 -0.6607792317778906  0.
-0.16729818032223084 -0.6602140383618436  0.
-0.21022700814528225 -0.6602919831818058  0.
-0.25380135588798747 -0.6610042506097118  0.
-0.2981469066228347 -0.6623419994365303  0.
0.25826561376190205 -0.7434857387425327  0.
0.21392470359134627 -0.7367901092761059  0.
0.17015543297178304 -0.7307896710936469  0.
0.12683993970651472 -0.7254756428945709  0.
0.08385953257949798 -0.7208392075829293  0.
0.04109460647400866 -0.7168714749336992  0.
-0.0015751844572536 -0.7135634772058969  0.
-0.044271008687502396 -0.710906142672283  0.
-0.08711480845506467 -0.7088902904156429  0.
-0.13022926168849494 -0.7075066303439728  0.
-0.17373781235852634 -0.7067457702801533  0.
-0.21776455551082866 -0.7065982370702487  0.
-0.26243430552958646 -0.7070545034099937  0.
-0.30787253504761375 -0.7081050278408508  0.
0.2624702216905931 -0.7918727007905638  0.
0.2170593341018597 -0.7852163573867114  0.
0.17222169137675863 -0.7792325421270272  0.
0.1278393611905961 -0.7739116362561227  0.
0.08379363474794291 -0.7692439959249566  0.
0.03996493499987467 -0.7652199166968274  0.
-0.003767010981319589 -0.7618296313221585  0.
-0.04752326129487403 -0.7590632852041803  0.
-0.09142561528247689 -0.756910932776121  0.
-0.13559658161300214 -0.7553625382773341  0.
-0.1801594174040961 -0.7544079820748323  0.
-0.22523801909814303 -0.7540370800605136  0.
-0.27095700116720356 -0.7542396063004314  0.
-0.3174416409913776 -0.7550053277124266  0.
0.26624749563170486 -0.841322818892366  0.
0.2198100784455373 -0.8347081991193709  0.
0.17394786721621006 -0.8287432769482613  0.
0.12854284149499787 -0.8234176393375986  0.
0.08347625533667337 -0.8187208568115905  0.
0.03862853801946043 -0.814642449892611  0.
-0.006120534374799268 -0.811171888907952  0.
-0.050891935276013406 -0.8082985710566111  0.
-0.09580734791578689 -0.8060118178973035  0.
-0.14098913842579322 -0.804300876345506  0.
-0.1865604022084885 -0.8031549237199347  0.
-0.232644859162288 -0.802563085086943  0.
-0.27936694087870945 -0.8025144517616091  0.
-0.3268517404457712 -0.8029981110236393  0.
0.26960054710975007 -0.8917873079649573  0.
0.22218012650130448 -0.8852172174207392  0.
0.1753371979485354 -0.8792738240593776  0.
0.12895363927021722 -0.8739459625393905  0.
0.08291065088810501 -0.8692224578055597  0.
0.037088649990459056 -0.8650920934679998  0.
-0.008632558808474619 -0.8615436134687995  0.
-0.05437388624184364 -0.8585657006532559  0.
-0.10025692203306656 -0.8561469751627692  0.
-0.14640391175635262 -0.8542759953090017  0.
-0.19293780900409505 -0.8529412609219791  0.
-0.23998217373295794 -0.852131228306736  0.
-0.28766126684167365 -0.8518343246871078  0.
-0.3361000032432124 -0.8520389736429723  0.
0.2725327849463987 -0.9432169818072805  0.
0.22417297625880384 -0.9366945757965385  0.
0.17639324327893088 -0.9307756940155124  0.
0.12907535084294072 -0.9254484600551376  0.
0.0821004326213521 -0.9207009926616887  0.
0.03534887858889634 -0.9165213756707334  0.
-0.011299495369955984 -0.9128976616845773  0.
-0.057965556097853387 -0.9098178523610594  0.
-0.10477081905029864 -0.9072698978221632  0.
-0.1518374273912354 -0.9052416972259556  0.
-0.19928820839711645 -0.9037210999493146  0.
-0.24724657397771255 -0.9026959176290995  0.
-0.29583662201022376 -0.9021539342965155  0.
-0.34518309282072135 -0.9020829282320788  0.
0.27504796854295727 -0.9955631274448795  0.
0.22579247074492495 -0.9890918916557303  0.
0.17711990323074614 -0.9832008326291992  0.
0.1289119095809454 -0.9778774035987622  0.
0.08104954711793522 -0.973109055503059  0.
0.033413166916900265 -0.9688832083720592  0.
-0.014117418204906028 -0.9651872572798998  0.
-0.06166304760480997 -0.9620085550641869  0.
-0.10934517940897968 -0.9593344133046692  0.
-0.15728586971444378 -0.9571521025823765  0.
-0.20560783128410917 -0.9554488508366632  0.
-0.25443433545822 -0.9542118514946253  0.
-0.30388932046041933 -0.9534282687298387  0.
-0.35409735257460795 -0.9530852558277765  0.
0.2771501718359146 -1.0487771320602104  0.
0.22704276818463298 -1.042360863938689  0.
0.1775213944544138 -1.036501249596545  0.
0.1284675682790757 -1.0311851120167976  0.
0.07976226501221212 -1.0263992719305106  0.
0.031285788990524165 -1.022130519940265  0.
-0.017082061784166228 -1.0183656255557232  0.
-0.06546211431034064 -1.0150913239141244  0.
-0.1139757855626848 -1.0122943196324028  0.
-0.16274505847604426 -1.009961286970155  0.
-0.21189254008681896 -1.0080788642630922  0.
-0.2615413640454897 -1.0066336562468958  0.
-0.31181530742538854 -1.005612232859665  0.
-0.36283875917414626 -1.0050011444286107  0.
0.278843764418412 -1.1028100692693161  0.
0.22792832728210377 -1.0964528606145432  0.
0.17760223996749083 -1.0906286062712873  0.
0.1277468923944306 -1.0853235401760808  0.
0.0782431781954072 -1.0805238898065976  0.
0.028971351970965745 -1.0762158482750086  0.
-0.020188812608680613 -1.0723855883399258  0.
-0.06935814579723289 -1.0690192563060352  0.
-0.11865804128613475 -1.0661029813664473  0.
-0.16821042338732528 -1.0636228762586641  0.
-0.21813779993330576 -1.0615650258776705  0.
-0.26856316430759697 -1.0599154801975514  0.
-0.3196101238001252 -1.0586602432409198  0.
-0.3714028824060521 -1.0577852840222155  0.
0.28013343502257493 -1.157613635591968  0.
0.22845391787392158 -1.1513198533597542  0.
0.1773672619437125 -1.1455351506108087  0.
0.12675473471676432 -1.1402452155897274  0.
0.07649715741572508 -1.1354357184590795  0.
0.02647473895520069 -1.1310922824766345  0.
-0.02343277908279631 -1.1272005067651656  0.
-0.07334624924709698 -1.1237459734394726  0.
-0.12338706561785796 -1.1207142673395314  0.
-0.17367711249276296 -1.1180909784271766  0.
-0.2243388038808431 -1.1158616813372848  0.
-0.2754949829176992 -1.1140119123825716  0.
-0.3272690675770536 -1.1125271421078  0.
-0.37978505959057307 -1.1113927793015865  0.
0.281024151491172 -1.2131390630933088  0.
0.2286245940226436 -1.206913331250783  0.
0.17682156614328476 -1.2011726314279092  0.
0.12549622955733147 -1.1959021554012228  0.
0.07452935853519699 -1.191087050941048  0.
0.023801131389647037 -1.186712391382783  0.
-0.026808749142113043 -1.182763215047705  0.
-0.0774211854183125 -1.1792245567329158  0.
-0.12815760841631982 -1.1760814866461633  0.
-0.17913989101708128 -1.1733191169526496  0.
-0.23049035961314077 -1.1709225668562515  0.
-0.28233168636409245 -1.1688769122227842  0.
-0.33478706153468824 -1.1671671290858572  0.
-0.3879802505438664 -1.165778084093106  0.
0.28152117898930906 -1.2693380710326614  0.
0.22844569878870585 -1.263185248874507  0.
0.17597052366888977 -1.257493246262707  0.
0.12397675025723787 -1.2522468189877132  0.
0.07234516042063674 -1.2474306248138742  0.
0.02095593496739459 -1.2430291929729786  0.
-0.03031126953739623 -1.239026995469762  0.
-0.0815774499768581 -1.23540852276808  0.
-0.13296413554284467 -1.232158357141981  0.
-0.1845932365169868 -1.2292611877681072  0.
-0.23658700252698123 -1.2267017526598718  0.
-0.28906789788198567 -1.2244647414506384  0.
-0.34215881432960366 -1.222534687061829  0.
-0.39598321378667106 -1.2208959276570448  0.
0.28163006957669134 -1.3261624532959952  0.
0.22792285474447324 -1.3200876088854718  0.
0.17481974957761118 -1.3144492238522258  0.
0.12220187514818344 -1.3092316982310137  0.
0.06995012738041713 -1.3044192266076167  0.
0.017944751796725875 -1.2999957743968802  0.
-0.033934652646819455 -1.2959452099327617  0.
-0.08580925422595602 -1.292251458440834  0.
-0.1378007864422934 -1.2888986350081626  0.
-0.19003128342228987 -1.2858710758547733  0.
-0.24262294098764167 -1.2831532438517987  0.
-0.29569795480647926 -1.280729552755023  0.
-0.34937879200854705 -1.2785841669218059  0.
-0.4037884806211488 -1.2767009048729094  0.
0.2813566852459308 -1.38356363321069  0.
0.22706197825397634 -1.3775720069207336  0.
0.17337508859472683 -1.3719923675058523  0.
0.12017734554952816 -1.3668088733914319  0.
0.06734995672970231 -1.3620052700292615  0.
0.014773339836676728 -1.357564894103982  0.
-0.03767298726334864 -1.3534709195651835  0.
-0.09011049830001872 -1.349706646184707  0.
-0.14266131416512556 -1.3462557318159898  0.
-0.19544774563566872 -1.3431022524407181  0.
-0.24859198409864766 -1.340230552353716  0.
-0.30221586211602464 -1.3376249406362728  0.
-0.35644120339945284 -1.3352693309812425  0.
-0.41139035565337356 -1.3331470274288104  0.
0.28070724606149305 -1.4414936563892151  0.
0.22586929010927842 -1.4355906026419407  0.
0.171642554542393 -1.4300750235470805  0.
0.11790894254295356 -1.4249310016974353  0.
0.06455032469636995 -1.4201418181593988  0.
0.011447463880512156 -1.415690038065445  0.
-0.04152025593089231 -1.4115579647518868  0.
-0.09447484570913427 -1.4077281511123014  0.
-0.14753912331581648 -1.4041837894215004  0.
-0.20083594078962058 -1.4009088197372939  0.
-0.254487587536096 -1.39788770071971  0.
-0.3086153957454592 -1.3951049072004564  0.
-0.36334017789925416 -1.3925443001010613  0.
-0.41878314336936673 -1.390188682003481  0.
0.27968844377910845 -1.4999040464501552  0.
0.22435137586501322 -1.4940949388905518  0.
0.16962829697778628 -1.4886488945706837  0.
0.11540238503474125 -1.4835501587329694  0.
0.061556772153633615 -1.4787814699826247  0.
0.007972822680397744 -1.4743243501403633  0.
-0.045470331334979415 -1.4701599270562522  0.
-0.09889563002997814 -1.466269797123332  0.
-0.15242709520734174 -1.462636649754222  0.
-0.20618856415239556 -1.4592444522876085  0.
-0.26030262762833234 -1.4560781174079613  0.
-0.3148899373288402 -1.4531227099517288  0.
-0.37006969853973615 -1.4503623785781292  0.
-0.42596115319662026 -1.4477794752049442  0.
0.2783076359877699 -1.5587468747590394  0.
0.22251523829335057 -1.5530369423923862  0.
0.1673384663818164 -1.5476660297796858  0.
0.11266307310195399 -1.5426188652606392  0.
0.0583744211761321 -1.5378774363925505  0.
0.004354811409513721 -1.5334217479139265  0.
-0.049517130251589575 -1.5292312715561385  0.
-0.1033659143590669 -1.5252863254131082  0.
-0.15731756141509154 -1.5215690166417708  0.
-0.21149760866922465 -1.5180635388622095  0.
-0.26602933421358876 -1.5147557281153923  0.
-0.32103251558967216 -1.511631884732939  0.
-0.376623833493834 -1.5086770318933884  0.
-0.43291910253867216 -1.5058732364377925  0.
0.2765732192572224 -1.6179743667266917  0.
0.22036840433137236 -1.6123684147129003  0.
0.16477904440117502 -1.6070782966251806  0.
0.10969579173520815 -1.6020895892680453  0.
0.055007702576580234 -1.5973830634517463  0.
0.0005983520125313939 -1.5929364425313688  0.
-0.05365466232441728 -1.588726861894104  0.
-0.1078784238136532 -1.5847329295561359  0.
-0.16220212536309725 -1.5809360367153444  0.
-0.21675409299053236 -1.577320804707487  0.
-0.2716589914205627 -1.5738745736197524  0.
-0.32703561980911566 -1.5705858036046942  0.
-0.38299682697185133 -1.567441382727542  0.
-0.4396525187608279 -1.5644235454210904  0.
0.2744952343248745 -1.6775398427903359  0.
0.21791899562036562 -1.6720417824666438  0.
0.16195550082748508 -1.666838095488341  0.
0.10650427451976949 -1.6619154433253773  0.
0.05146003807984711 -1.657252433121974  0.
-0.0032922689849388073 -1.6528233911959365  0.
-0.057877091835020586 -1.64860230488092  0.
-0.11242555602990323 -1.6445656117465417  0.
-0.1670716143405502 -1.6406937973625508  0.
-0.2219479155925636 -1.6369720105973835  0.
-0.27718171017588855 -1.6333896536473143  0.
-0.3328910639360866 -1.6299385231841534  0.
-0.3891833716833032 -1.626608977034947  0.
-0.4461586089539945 -1.6233845211607085  0.
0.2720863835075663 -1.7373977143530175  0.
0.215175737134671 -1.7320098000839832  0.
0.1588723131646643 -1.7268979920838117  0.
0.10309086382359227 -1.7220496161868024  0.
0.04773386424627803 -1.7174393603936857  0.
-0.007313144471759875 -1.713036774808975  0.
-0.0621784918596853 -1.7088120740709225  0.
-0.1169992903149479 -1.7047392891015214  0.
-0.17191611109504798 -1.7007977819960112  0.
-0.22706782974118203 -1.6969729934171107  0.
-0.2825861907271007 -1.6932565189830733  0.
-0.3385896670168721 -1.6896446401916625  0.
-0.3951787682053822 -1.6861335775302841  0.
-0.45243750422686413 -1.682710593746951  0.
0.26936333276841895 -1.7975079605823303  0.
0.21214740409113517 -1.792229638804103  0.
0.15553209629380108 -1.7872146048844737  0.
0.09945641977083446 -1.7824485444633067  0.
0.043831341210108996 -1.7778992784077952  0.
-0.011459837030140857 -1.773530566724005  0.
-0.06655233197217848 -1.7693092215998365  0.
-0.12159139118437769 -1.7652074107632731  0.
-0.17672579800310304 -1.7612032147471646  0.
-0.23210249846168798 -1.757281358132158  0.
-0.2878604068310523 -1.7534344706950928  0.
-0.34412139576156914 -1.7496634557018769  0.
-0.4009793978213932 -1.7459734605286295  0.
-0.4584946453766384 -1.7423606171336528  0.
0.2663482746726723 -1.8578409021479099  0.
0.20884124454179345 -1.852667097976574  0.
0.1519348914490577 -1.8477522680880512  0.
0.09560200322515311 -1.843073268535181  0.
0.039757436867981014 -1.838587463771625  0.
-0.01572441275560404 -1.8342539260031399  0.
-0.07098978769240494 -1.8300391023823936  0.
-0.1261934930348008 -1.825915448402112  0.
-0.18149274877852245 -1.821859828002458  0.
-0.2370432347667397 -1.8178539592492002  0.
-0.292993948663336 -1.813887490284251  0.
-0.34947610291832204 -1.809962883493391  0.
-0.40658273110335347 -1.806096165794907  0.
-0.46434393648847955 -1.8023022206460066  0.
0.2630688486034952 -1.9183899427999822  0.
0.20525887451992178 -1.9133096689620492  0.
0.14807920075127423 -1.908493166789163  0.
0.09153505072179184 -1.9038935405683637  0.
0.03552774835559449 -1.8994560568774252  0.
-0.02008930842774426 -1.8951432637876822  0.
-0.07547658206699265 -1.8909290052251884  0.
-0.13079732352238543 -1.886790105532057  0.
-0.18621467222083152 -1.8827026728955063  0.
-0.24189075335739083 -1.8786420200597154  0.
-0.29798527876614095 -1.8745866308153099  0.
-0.3546476909943133 -1.8705291571327747  0.
-0.4119873691798394 -1.8664926111410054  0.
-0.4700113774507776 -1.8625244109526693  0.
0.2595512573364233 -1.9792024281608092  0.