<?xml version="1.0"?>
<VTKFile type="UnstructuredGrid" version="0.1" byte_order="LittleEndian" compressor="vtkZLibDataCompressor">
<UnstructuredGrid>
<Piece NumberOfPoints="714" NumberOfCells="650">
<PointData>
<DataArray type="Float64" Name="displacement" NumberOfComponents="3" format="ascii" >
0.0 0.0  0.
0.0 0.0  0.
0.0 0.0  0.
0.0 0.0  0.
0.0 0.0  0.
0.0 0.0  0.
0.0 0.0  0.
0.0 0.0  0.
0.0 0.0  0.
0.0 0.0  0.
0.0 0.0  0.
0.0 0.0  0.
0.0 0.0  0.
0.0 0.0  0.
0.028856495072501716 -0.03600445953961824  0.
0.017661403987917424 -0.020068580841261615  0.
0.013530192983725738 -0.011198928893622624  0.
0.010078361820555371 -0.00556989040016313  0.
0.007122701055489407 -0.00182824470433008  0.
0.004373260810877249 0.0006063895380489669  0.
0.0017303654366407346 0.002013261479355813  0.
-0.0008794449893614926 0.002504143655487822  0.
-0.0035172495907960337 0.002074050191206787  0.
-0.006258660449480409 0.0006003257295675682  0.
-0.009204923638978057 -0.0022120961352092004  0.
-0.012665604614599483 -0.006964867192903311  0.
-0.01678292306082703 -0.015102927925483492  0.
-0.028123365180773158 -0.030460554775826983  0.
0.05577106124517982 -0.053670255217229616  0.
0.041425691006840605 -0.039215135275230226  0.
0.031020665506693076 -0.026849222743375884  0.
0.02313766565892994 -0.017851726522364435  0.
0.016298875410125913 -0.011436790233367123  0.
0.0100468448187848 -0.007106381143337573  0.
0.004080760573600607 -0.0045604517197594405  0.
-0.001799258645473645 -0.0036692825693862567  0.
-0.0077738690269140735 -0.004450599562096321  0.
-0.014048301421383321 -0.0070748660844905265  0.
-0.02093864605913403 -0.011901023381603272  0.
-0.028917444213123734 -0.019527301928488557  0.
-0.039522024743268845 -0.030928722782027976  0.
-0.05433483507387591 -0.044841690789495244  0.
0.08096665691971824 -0.07218193426809816  0.
0.06447700128076723 -0.05760863753354189  0.
0.050046977088568576 -0.04489656903586018  0.
0.037653956814632454 -0.034539473339688896  0.
0.026667705290287263 -0.026710131201099538  0.
0.01649678393702422 -0.021214643377520468  0.
0.006758969025546336 -0.017898143052213957  0.
-0.0028570390980556587 -0.016689012338426623  0.
-0.012639621825798468 -0.017620833049785588  0.
-0.022913695112334827 -0.020839269015742002  0.
-0.03409017610414846 -0.026594562699531532  0.
-0.04682050338957571 -0.035212369376115514  0.
-0.06183997945609991 -0.04665166210549759  0.
-0.07930052722060044 -0.060487190722898196  0.
0.10593655534741844 -0.09293885164799333  0.
0.08671412734010989 -0.07844546313483769  0.
0.06881083323038742 -0.06567941461628221  0.
0.052459935176714705 -0.054991124753952784  0.
0.03739181967491142 -0.04657227312743349  0.
0.023201057726664177 -0.040482658836498514  0.
0.009491713296226313 -0.03670420942517967  0.
-0.004092502639544257 -0.035236324071919206  0.
-0.017903064685858044 -0.0361240752206069  0.
-0.032316495496835004 -0.03946302765501157  0.
-0.0477740758651015 -0.04537909479513733  0.
-0.06475688653847207 -0.053929876386845946  0.
-0.08364074392374973 -0.06503583740341604  0.
-0.10428411792617731 -0.07846596885691474  0.
0.13053537187678918 -0.1171103703087572  0.
0.10821604039258864 -0.10263444406600383  0.
0.08694290773113025 -0.08993751858837389  0.
0.06689167748358144 -0.07919535709125428  0.
0.04793328826679153 -0.07058919493243272  0.
0.029775767819214767 -0.06422997125721575  0.
0.012074146152980804 -0.06018106406887501  0.
-0.005529241312285263 -0.0584867618485635  0.
-0.02339906462427504 -0.059196877011847414  0.
-0.041917243120616954 -0.06236869028252459  0.
-0.06147879746995617 -0.06804408332866943  0.
-0.08245279570849542 -0.07621877477372349  0.
-0.1050663798823013 -0.0868190675399266  0.
-0.1292442596170122 -0.09980272496111708  0.
0.15462667332939806 -0.1450645298486218  0.
0.12899977316706476 -0.13060038698410753  0.
0.10434136358934745 -0.11796235909421704  0.
0.08071254313105762 -0.10724936713302885  0.
0.05800762616011114 -0.09859303474039154  0.
0.03599462694102039 -0.09210825356966325  0.
0.014372209995466425 -0.08787948738381461  0.
-0.007193405165211575 -0.08596974902693715  0.
-0.029052757831533042 -0.08642845268879047  0.
-0.051564047459427616 -0.0892915881258852  0.
-0.07507773206897987 -0.09457372001415136  0.
-0.09989871181411841 -0.10225863929040904  0.
-0.1262263655156292 -0.1123171739176205  0.
-0.1541103486406355 -0.12477472624030723  0.
0.1780647843420712 -0.17693365301007133  0.
0.14904261925375717 -0.1624697264350341  0.
0.12097801794255768 -0.1498651654071362  0.
0.09383578744659901 -0.1391776984892995  0.
0.0674927304912084 -0.13050133433435307  0.
0.04173915312576819 -0.12393202819437234  0.
0.01630441767380406 -0.11955153941440892  0.
-0.009118459634207543 -0.1174234403529927  0.
-0.034855068811329395 -0.11759391276971651  0.
-0.061235386364721825 -0.1200913824730508  0.
-0.08857588277756921 -0.124925134631115  0.
-0.11715422571977899 -0.13208967924827122  0.
-0.1471830612609379 -0.14158464583257796  0.
-0.17881159481643266 -0.15345774747817506  0.
0.20074088402535917 -0.21272201123210704  0.
0.16830590900903689 -0.19824640254742484  0.
0.136837266209704 -0.1856453224410212  0.
0.10623108624281452 -0.17495590928792865  0.
0.07633771272044373 -0.16624444737990707  0.
0.04695153638046916 -0.1595858718947378  0.
0.01782016541623809 -0.15504945719561125  0.
-0.01134071855011285 -0.15269192213332167  0.
-0.04083286161062688 -0.15255488679524143  0.
-0.07096166160505149 -0.15466442651494858  0.
-0.10202159289256098 -0.15903298509066324  0.
-0.134281025071449 -0.1656665100113067  0.
-0.16797369281813848 -0.1745806200611656  0.
-0.20331246865092897 -0.18582339438729423  0.
0.22257377047250596 -0.2523759045472878  0.
0.1867496473228048 -0.2378747443263235  0.
0.1519030936429817 -0.22524927817424628  0.
0.11788450673303714 -0.2145251734187872  0.
0.08452029661446812 -0.20574958036890803  0.
0.05160149046052224 -0.19897896893872596  0.
0.01888555037068811 -0.19426867399460857  0.
-0.013895436690620109 -0.19166617558424962  0.
-0.04702434272499565 -0.19120791472724927  0.
-0.08078824119998004 -0.19291886986861262  0.
-0.1154680137040393 -0.19681508295153585  0.
-0.15133005163165092 -0.2029101628272555  0.
-0.1886252090085384 -0.2112259828097113  0.
-0.22760230865900993 -0.22180397702633123  0.
0.24350314240965137 -0.29581309603786693  0.
0.20433727814492092 -0.2812717246993379  0.
0.1661577183900612 -0.2685970065494154  0.
0.12878515152871534 -0.2578074527625038  0.
0.09202741600892095 -0.24893675360563033  0.
0.05567004023655291 -0.2420266897287223  0.
0.019475206781126544 -0.23711995639553604  0.
-0.01681412228907314 -0.2342548239667117  0.
-0.053467405416912195 -0.2334622730402303  0.
-0.09075902564646683 -0.2347655873022917  0.
-0.12896155067708567 -0.23818249169938574  0.
-0.16834146786364512 -0.2437298762124322  0.
-0.20916064623918446 -0.25143027968754844  0.
-0.2516862349152831 -0.26131703944064827  0.
0.26348300896222765 -0.342937404300675  0.
0.22103681691795055 -0.3283412294483851  0.
0.1795824272034902 -0.31559552428552007  0.
0.1389213533197178 -0.3047136033781311  0.
0.0988479452536106 -0.2957193784767131  0.
0.05914232231158258 -0.2886432009938537  0.
0.019568512900981338 -0.28351713542058155  0.
-0.02012377339506778 -0.2803710560423534  0.
-0.060195046681687125 -0.2792303865532494  0.
-0.10091125221422242 -0.28011569358729477  0.
-0.1425397097021549 -0.283044157768804  0.
-0.18534706217994612 -0.2880326319628019  0.
-0.22960115507939788 -0.29510131608726636  0.
-0.27557740972489825 -0.3042759647366493  0.
0.28247738820913054 -0.3936458467804765  0.
0.23682075102516725 -0.37898102900736036  0.
0.19215873310401596 -0.3661454894041415  0.
0.14828041506495643 -0.3551482711577258  0.
0.10497065575082502 -0.3460058259099216  0.
0.06200501917041122 -0.3387395448403435  0.
0.01914789817339029 -0.3333727018135973  0.
-0.023847019312698548 -0.32992772351070165  0.
-0.06723450014064694 -0.3284245030006544  0.
-0.11127495547599342 -0.32887999407907337  0.
-0.15623219033991145 -0.3313090832145642  0.
-0.20237251775886944 -0.3357264051798277  0.
-0.24996638587494868 -0.3421483342669505  0.
-0.29929222137282363 -0.3505938968198783  0.
0.30045745296220805 -0.4478320358231031  0.
0.2516655721847217 -0.43308591508298183  0.
0.20386920242473885 -0.42014430432293554  0.
0.15684929237971248 -0.4090124404337  0.
0.11038412970228609 -0.3997007816910655  0.
0.06424571966065311 -0.39222350819627816  0.
0.01819815504532064 -0.3865965588946696  0.
-0.02800261585913631 -0.3828357567990209  0.
-0.07460772994233385 -0.3809555792654049  0.
-0.12187393169652314 -0.38096876348351266  0.
-0.17006248628677273 -0.3828867407954118  0.
-0.2194389060547447 -0.3867206334525177  0.
-0.27027423941427775 -0.3924822950244906  0.
-0.3228473667683753 -0.40018470612171847  0.
0.317399882164385 -0.5053881707484636  0.
0.26555142811436816 -0.4905495026461071  0.
0.21469808163055756 -0.477487939928239  0.
0.16461544076908224 -0.46620517984817245  0.
0.11507729834988693 -0.4567066291365302  0.
0.06585301455601375 -0.4490004663969741  0.
0.016706175156811717 -0.44309637851436007  0.
-0.03260599662266042 -0.43900427511028267  0.
-0.08233231297328175 -0.4367333941638999  0.
-0.13272699894382947 -0.4362919305347383  0.
-0.1840493333206631 -0.43768718745459995  0.
-0.23656370925307263 -0.4409260719362823  0.
-0.29054068287791474 -0.44601561723954297  0.
-0.34625843333702666 -0.45296318439205807  0.
0.3332856994243801 -0.5662055554639178  0.
0.27846170741219395 -0.5512646204782787  0.
0.22463158057674518 -0.5380713687205334  0.
0.17156741221963484 -0.5266241382431571  0.
0.11903997564362276 -0.5169239078019022  0.
0.06681675848636685 -0.5089736902005365  0.
0.014660877054288994 -0.5027777117523375  0.
-0.03766967965721323 -0.4983405206604018  0.
-0.09042215426866926 -0.49566633004140803  0.
-0.14384892644765407 -0.4947586775247107  0.
-0.19820760226995493 -0.4956204092094351  0.
-0.2537612702070816 -0.49825388221318906  0.
-0.3107794250207839 -0.5026612047168766  0.
-0.3695390316312918 -0.5088443530548779  0.
0.3480997362459508 -0.630175340264269  0.
0.29038289513295185 -0.6151239719144123  0.
0.23365815112781085 -0.6017892614975717  0.
0.17769536245699755 -0.5901663296452443  0.
0.12226334698828059 -0.580252157498117  0.
0.06712835525846297 -0.5720451800856526  0.
0.01205319336114153 -0.56554474652117  0.
-0.043203599117025336 -0.5607504883075181  0.
-0.09888809539002046 -0.5576618278617852  0.
-0.15525120176631904 -0.5562776719996647  0.
-0.2125490202122156 -0.5565963033742082  0.
-0.27104322574149026 -0.558615415397164  0.
-0.3310019460661246 -0.5623321903376263  0.
-0.39270066542484033 -0.5677433543807818  0.
0.3618302341155651 -0.6971887585782696  0.
0.3013044081858989 -0.6820203257651422  0.
0.2417686020184338 -0.6685362087440305  0.
0.18299134693181535 -0.6567284326563448  0.
0.12474029096768852 -0.6465902935692803  0.
0.06678096751308865 -0.6381160762702522  0.
0.0088760842664024 -0.631300693953742  0.
-0.04921531068543673 -0.62613922767468  0.
-0.10773830082112415 -0.622626549818981  0.
-0.16694250107775901 -0.6207570499510583  0.
-0.2270825832339664 -0.6205244779298881  0.
-0.2884187287734547 -0.6219218818750238  0.
-0.3512175042416836 -0.6249415832537936  0.
-0.4157527103639323 -0.6295751661610222  0.
0.3744685871513502 -0.767137242374191  0.
0.31121847579330797 -0.751846608841954  0.
0.24895615529459222 -0.7382068367998598  0.
0.1874495023787862 -0.726206966379157  0.
0.12646559043975814 -0.7158368482322145  0.
0.06576966263022982 -0.7070869412739728  0.
0.005124554628196462 -0.6999480689086435  0.
-0.055710122589990634 -0.694411071777703  0.
-0.11697850987684366 -0.6904665112234687  0.
-0.17892899430946752 -0.6881044233748679  0.
-0.2418148262328131 -0.6873141379180939  0.
-0.3058946135955937 -0.6880841574727331  0.
-0.3714332024190193 -0.6904020589011317  0.
-0.4387025034872474 -0.6942544110910428  0.
0.38600922259481174 -0.8399128947957856  0.
0.3201200935449127 -0.8244963665242683  0.
0.2552164963189481 -0.8106962862381727  0.
0.19106616630583778 -0.7984988113383243  0.
0.12743606314663422 -0.7878905405097889  0.
0.06409149207694222 -0.7788583646117743  0.
0.0007956373364901048 -0.7713892998527956  0.
-0.0626912234331428 -0.7654702162679149  0.
-0.12661225888676367 -0.7610875971183153  0.
-0.19121461906231574 -0.7582273161336751  0.
-0.2567500965855351 -0.7568744441191853  0.
-0.32347563440714716 -0.757013090633594  0.
-0.39165420314398336 -0.7586262481695822  0.
-0.46155560014396624 -0.7616956393813438  0.
0.39644937190291263 -0.9154081124307899  0.
0.32800686639437243 -0.899863385329519  0.
0.26054770620245926 -0.8858998519905451  0.
0.19383988344455472 -0.8735008828481228  0.
0.12765060654761412 -0.8626499885732957  0.
0.06174553439547619 -0.8533307064221635  0.
-0.004111595920261047 -0.8455264852995072  0.
-0.07015971533457285 -0.8392204654533305  0.
-0.13664094919785158 -0.8343952772878512  0.
-0.2038011585392413 -0.8310328369120424  0.
-0.2718906126437069 -0.8291141466299677  0.
-0.3411644864653421 -0.8286191111942697  0.
-0.4118837189056349 -0.8295263367582264  0.
-0.48431576566941464 -0.8318129162783156  0.
0.40578898743980335 -0.9935159064888814  0.
0.3348789556090438 -0.9778420163471798  0.
0.26495024606670076 -0.9637133188639267  0.
0.19577141762000133 -0.9511104894346405  0.
0.12711021514730708 -0.9400140951098803  0.
0.05873289208707668 -0.93040450527023  0.
-0.009596078679421883 -0.9222618122540646  0.
-0.07811470787580146 -0.91556564616569  0.
-0.1470639870580954 -0.9102950018049989  0.
-0.21668841359619956 -0.906428048572235  0.
-0.2872366515139658 -0.9039419281583885  0.
-0.3589619991912115 -0.902812553731213  0.
-0.43212321130075587 -0.9030143745515443  0.
-0.5069851865287394 -0.9045201118180364  0.
0.4140306481432437 -1.0741303881075577  0.
0.34073900437015675 -1.0583276623044513  0.
0.2684269029690206 -1.0440334592327347  0.
0.19686371257135554 -1.031225847465093  0.
0.12581794205906555 -1.0198825816664672  0.
0.05505663725101819 -1.0099810296044465  0.
-0.015654833752936876 -1.0014981174611457  0.
-0.08655343869020884 -0.9944101690726023  0.
-0.1578789395519743 -0.9886927533424915  0.
-0.22987438659805404 -0.9843205057053288  0.
-0.3027867512465343 -0.9812669253745562  0.
-0.37686734904433694 -0.9795041642631228  0.
-0.4523726110964905 -0.9790027677092686  0.
-0.5295646896765824 -0.9797313766962933  0.
0.42117931511937984 -1.1571457918815162  0.
0.3455919424940029 -1.1412158121625813  0.
0.27098265102776387 -1.1267570804022524  0.
0.19712180384388323 -1.1137451453703728  0.
0.12377885274129632 -1.1021550721314255  0.
0.05072179617572321 -1.0919613797547612  0.
-0.022282967120837403 -1.0831380042044254  0.
-0.09547125104993948 -1.0756581549252655  0.
-0.16908149605613856 -1.069494177717023  0.
-0.2433552227729373 -1.0646173860729926  0.
-0.31853762592020396 -1.060997860166775  0.
-0.39487794203790183 -1.0586042315268336  0.
-0.4726301598121868 -1.057403409907666  0.
-0.552053535521922 -1.0573602666309712  0.
0.42724232761596986 -1.2424579935891222  0.
0.3494449649902374 -1.2264035563059084  0.
0.27262460490587787 -1.2117825431366163  0.
0.19655274520110666 -1.1985680689178826  0.
0.12099991797538229 -1.186732625566716  0.
0.04573520168552966 -1.176248026849215  0.
-0.02947386254907474 -1.1670853837241681  0.
-0.10486183920353245 -1.1592149736110975  0.
-0.1806657647731225 -1.1526061155250775  0.
-0.2571255553985369 -1.1472270105349325  0.
-0.33448455483377554 -1.1430445447254287  0.
-0.41298984041883796 -1.1400240751484056  0.
-0.4928928667826283 -1.138129152190803  0.
-0.5744498863717811 -1.1373211982047964  0.
0.43222912448350415 -1.3299629895384417  0.
0.35230730524660236 -1.3137880774227586  0.
0.27336185190762474 -1.2990082638421214  0.
0.19516549634318592 -1.2855943156033174  0.
0.1174899533805054 -1.2735162643277371  0.
0.0401054795618819 -1.2627433549785663  0.
-0.037219152605162856 -1.2532440305320847  0.
-0.1147171795892465 -1.2449858109018532  0.
-0.19262416472504074 -1.23793517843786  0.
-0.2711783569496303 -1.2320574274226592  0.
-0.3506211891296649 -1.2273164732420938  0.
-0.4311975193486247 -1.2236746445201707  0.
-0.5131562061273776 -1.2210924088284802  0.
-0.596750436276006 -1.2195280585409574  0.
0.43615119222848925 -1.4195583571367993  0.
0.35419016371345874 -1.4032681083384975  0.
0.27320535556657743 -1.388334172155948  0.
0.19297080008836476 -1.374725054283648  0.
0.11325946729922562 -1.362408435783088  0.
0.03384286396912333 -1.3513511239902973  0.
-0.04550893852375629 -1.341519044234212  0.
-0.12502778772911524 -1.3328771265551693  0.
-0.2049477198503178 -1.3253892005457868  0.
-0.28550526880338595 -1.3190178542309503  0.
-0.3669399137307411 -1.313724251559141  0.
-0.44949425554659567 -1.3094679348599192  0.
-0.5334145251267173 -1.3062065605727984  0.
-0.618950824028818 -1.3038956007291833  0.
0.43902185640997843 -1.5111427415981507  0.
0.35510652441002377 -1.494743422039747  0.
0.27216779828197474 -1.479661206233834  0.
0.18998105060918147 -1.4658624257816315  0.
0.10832055296859223 -1.4533125188213212  0.
0.02695911150504252 -1.4419759818803897  0.
-0.05433185613780221 -1.4318163672225537  0.
-0.13578276529005215 -1.4227961762781827  0.
-0.21762608724903645 -1.4148767634075043  0.
-0.300096609397225 -1.4080182047309922  0.
-0.3834318326466404 -1.4021791257626555  0.
-0.46787208536499136 -1.3973165174945643  0.
-0.5536609686984029 -1.3933854870263822  0.
-0.6410455167801167 -1.3903389820450878  0.
0.44085611382920487 -1.60461516115216  0.
0.35507100787384155 -1.588114141023322  0.
0.2702634590016734 -1.5728906248772978  0.
0.18621019435904057 -1.558908858627328  0.
0.10268681166740257 -1.5461321436795785  0.
0.01946744523173153 -1.5345227888511124  0.
-0.06367511212603696 -1.5240421126650538  0.
-0.14696981729434475 -1.514650343032964  0.
-0.2306475552787917 -1.5063065299571379  0.
-0.31494135214977287 -1.4989684249510986  0.
-0.40008672446755306 -1.4925923202228082  0.
-0.48632173435308707 -1.4871328806548023  0.
-0.5738873773266797 -1.482542912685727  0.
-0.6630276724848204 -1.4787731155454014  0.
0.4416705142780038 -1.6998766658207207  0.
0.35409973319373467 -1.6832823891064561  0.
0.2675080494317223 -1.6679256555673474  0.
0.18167354131421856 -1.6537687141353887  0.
0.09637313830701191 -1.6407728337384513  0.
0.011382314072856047 -1.6288982549583597  0.
-0.07352475125291948 -1.618104196689048  0.
-0.15857554611134464 -1.60834876211868  0.
-0.24399936390679994 -1.5995888607451936  0.
-0.3300274710780556 -1.5917800990296576  0.
-0.41689341131340546 -1.5848766320292744  0.
-0.5048330064650496 -1.578831012511038  0.
-0.5940846939514318 -1.5735939799925704  0.
-0.6848895559682586 -1.5691142413294203  0.
0.4414829745522844 -1.7968284889535084  0.
0.352210171095999 -1.7801504491565565  0.
0.26391861320527105 -1.7646696563098379  0.
0.17638770941566603 -1.7503464519011627  0.
0.08939571114538007 -1.7371401755824136  0.
0.002719427554929948 -1.7250091155751537  0.
-0.0838655767701856 -1.7139105198505094  0.
-0.17058532710561014 -1.7038005090397297  0.
-0.25766753556118827 -1.694634008610598  0.
-0.3453417265138488 -1.6863646514152915  0.
-0.4338394985231615 -1.678944642057122  0.
-0.5233944763330396 -1.67232462313645  0.
-0.6142426054001461 -1.6664534844794543  0.
-0.7066221315069773 -1.6612781738454871  0.
0.44031264468246906 -1.8953737260405854  0.
0.34942099054934794 -1.8786224346029043  0.
0.25951334836814194 -1.8630277813329583  0.
0.17037042310366782 -1.8485482910574644  0.
0.08177176643548245 -1.8351414756861266  0.
-0.006504492937441548 -1.8227637829429646  0.
-0.09468142197771844 -1.8113706124487816  0.
-0.18298360253488843 -1.8009162370807665  0.
-0.2716371910596295 -1.791353746912954  0.
-0.36087000278087167 -1.7826349644755954  0.
-0.45091173355076103 -1.7747103214270945  0.
-0.5419938681590539 -1.7675287404009599  0.
-0.6343499403654627 -1.7610374628462668  0.
-0.7282154750552121 -1.7551818882149934  0.
0.438179750134119 -1.9954166451415725  0.
0.34575192084091183 -1.9786035994781515  0.
0.2543114898365045 -1.9629062913273552  0.
0.16364041649061595 -1.9482815207904902  0.
0.07351952291672087 -1.9346850722787297  0.
-0.016271767258848248 -1.922071660092895  0.
-0.1059551797794631 -1.910394950589262  0.
-0.19575388691696533 -1.8996074950246358  0.
-0.2858925308862382 -1.8896606882753826  0.
-0.3765972660810112 -1.8805046980906848  0.
-0.46809594124456705 -1.8720883527315724  0.
-0.5606179687040295 -1.864359034815765  0.
-0.6543945596000533 -1.8572625234841578  0.
-0.7496586416474051 -1.8507428598230822  0.
0.4351054860415445 -2.096861915894589  0.
0.341223660817512 -2.0799995673785205  0.
0.24833323522079856 -2.064211780857946  0.
0.15621737439097338 -2.0494537276811537  0.
0.06465813913643759 -2.0356795643550827  0.
-0.026563780751157635 -2.022842372666787  0.
-0.11766880627711661 -2.0108941907812787  0.
-0.20887874875832013 -1.9997859634494792  0.
-0.30041679542150024 -1.989467521135908  0.
-0.39250750497829234 -1.9798875255961759  0.
-0.4853769468119551 -1.9709933659395988  0.
-0.579252534310309 -1.9627310576116153  0.
-0.6743632463408602 -1.9550450906859733  0.
-0.7709395398817608 -1.9478783154412898  0.
0.4311118465868642 -2.199616364501107  0.
0.33585769292169804 -2.182718077271294  0.
0.2415995345430017 -2.166852917982182  0.
0.14812169746204604 -2.1519745319624946  0.
0.05520745606244232 -2.138035546752873  0.
-0.037361259831674806 -2.124987503498505  0.
-0.12980361021060544 -2.1127809025186277  0.
-0.22234011137141935 -2.1013651818818233  0.
-0.31519257755771235 -2.090688727241174  0.
-0.40858405784983665 -2.080698838137827  0.
-0.5027389222890402 -2.0713416282861687  0.
-0.5978826594007441 -2.062561917772831  0.
-0.6942420982000218 -2.05430307281819  0.
-0.792045341466867 -2.0465069013863486  0.
0.4262215811803942 -2.303586919992544  0.
0.32967626856838783 -2.2866669309130496  0.
0.23413210267924559 -2.2707383915699397  0.
0.13937453923757862 -2.25575353855312  0.
0.04518806286404116 -2.2416635703759034  0.
-0.04864417001774064 -2.22841856526856  0.
-0.14234010753491239 -2.215967553030542  0.
-0.2361190602098273 -2.204258542119825  0.
-0.3302015841363184 -2.193238578602626  0.
-0.4248093345161803 -2.1828537413635907  0.
-0.520165076699425 -2.1730490401095026  0.
-0.6164924420679083 -2.1637682806927594  0.
-0.71401616874385 -2.154953870182166  0.
-0.8129620970832776 -2.14654670319504  0.
0.42045803511193175 -2.408682380240157  0.
0.3227022307182559 -2.3917557461112593  0.
0.22595320672198407 -2.375778656033383  0.
0.1299975556908463 -2.360702082244504  0.
0.03462101659522903 -2.346475895486226  0.
-0.060392012481960196 -2.3330487650090896  0.
-0.15525832134748307 -2.3203682798669623  0.
-0.2501961392299699 -2.3083810604351296  0.
-0.3454249303415998 -2.2970328983061754  0.
-0.44116511825436316 -2.2862687950981457  0.
-0.5376379795013873 -2.276032848694716  0.
-0.6350653405255068 -2.2662680588828947  0.
-0.7336698602295793 -2.256916052728372  0.
-0.8336751537475622 -2.247916924387984  0.
0.4138451072041035 -2.5148126150356567  0.
0.3149589779358309 -2.4978951474770783  0.
0.21708561374105828 -2.4818851156011816  0.
0.12001283472151965 -2.4667324196501736  0.
0.023527768722671708 -2.4523857051850597  0.
-0.07258387718166323 -2.4387922452865576  0.
-0.16853779378258332 -2.4258981561468453  0.
-0.26455131070822074 -2.413648655067456  0.
-0.3608430503325836 -2.4019883343267563  0.
-0.45763244324099606 -2.390861268912211  0.
-0.5551394285795354 -2.3802108781799074  0.
-0.6535840531490757 -2.369979620220818  0.
-0.7531868227424531 -2.3601085610949646  0.
-0.8541690575571955 -2.3505370993674113  0.
0.4064072870489724 -2.6218877151716935  0.
0.3064704902342985 -2.604995891921831  0.
0.20755257017879544 -2.588969236840615  0.
0.1094428288513956 -2.573756853939413  0.
0.011930079887665094 -2.5593062640386415  0.
-0.08519850719164677 -2.5455632853845147  0.
-0.18215759661807143 -2.5324724281736133  0.
-0.2791638955905797 -2.519977402451758  0.
-0.37643557163433156 -2.508021610266345  0.
-0.47419142761619143 -2.4965483640014576  0.
-0.5726502803104013 -2.4855007083830993  0.
-0.6720303830556451 -2.4748209265408163  0.
-0.7725498681854314 -2.4644498275845126  0.
-0.8744274937090701 -2.454326226927885  0.
0.3981695730603186 -2.729819831207927  0.
0.2972611861232391 -2.712970656085573  0.
0.19737753702053254 -2.696944311284893  0.
0.0983099801623828 -2.6816895145928425  0.
-0.0001504124545814578 -2.667152746048347  0.
-0.09821472599889883 -2.6532781872112396  0.
-0.19609670502240967 -2.6400084487552262  0.
-0.2940128703451922 -2.6272854927719496  0.
-0.39218154095050606 -2.6150514691958855  0.
-0.49082146352240263 -2.60324910961452  0.
-0.5901506625921851 -2.591821497218005  0.
-0.6903855375810661 -2.5807112788185846  0.
-0.791741390914108 -2.569859473886363  0.
-0.8944337917533531 -2.559204478065758  0.
0.38915777230908544 -2.83852103977833  0.
0.28735613526457093 -2.8217318212532683  0.
0.1865842425949444 -2.8057232034768407  0.
0.08663665189908681 -2.790444133329407  0.
-0.01269228938998966 -2.7758400809347257  0.
-0.11161146685065998 -2.7618532026836187  0.
-0.2103338975890495 -2.7484236738110224  0.
-0.3090766105153936 -2.7354912705046908  0.
-0.4080590199042822 -2.7229967224985416  0.
-0.5075007116630104 -2.7108823761261944  0.
-0.6076194530536081 -2.699091915993927  0.
-0.7086296951044124 -2.6875691582017724  0.
-0.8107430946299243 -2.676256091724915  0.
-0.9141707770171539 -2.6650909966508305  0.
0.3793986729645175 -2.947905361741821  0.
0.27678099527044614 -2.9311933328886006  0.
0.17519629863407304 -2.915220143854558  0.
0.07444452962413589 -2.899935865796305  0.
-0.025675003134304687 -2.8852848477587667  0.
-0.12536835267294527 -2.871206499942989  0.
-0.22484819621911972 -2.857637687920086  0.
-0.32433316915593674 -2.844515306091319  0.
-0.42404521288615327 -2.831778346184322  0.
-0.5242061278374867 -2.819368950662025  0.
-0.6250343111114662 -2.807232136958122  0.
-0.7267422043035308 -2.7953140720330767  0.
-0.8295365054770214 -2.78355896819813  0.
-0.9336215798908147 -2.7719056304740013  0.
0.3689206975533875 -3.0578880870109524  0.
0.26556222336121676 -3.0412697574135  0.
0.16323694224356025 -3.0253496814646463  0.
0.061754145011107264 -3.010080258895612  0.
-0.03907931170091978 -2.9954042737490383  0.
-0.13946594958525635 -2.981257168299484  0.
-0.23961890832084018 -2.967571217465769  0.
-0.33976012164160696 -2.954279461467099  0.
-0.44011612886368867 -2.941318646772821  0.
-0.5409129687992312 -2.9286307968708125  0.
-0.6423711299980241 -2.916163095694127  0.
-0.7447012110724087 -2.903865690104532  0.
-0.8481030584339262 -2.891687052850375  0.
-0.952770257621368 -2.8795678827525535  0.
0.3577547584099361 -3.168387618667475  0.
0.253727044988347 -3.151877665712454  0.
0.15072830858558528 -3.1360279031224794  0.
0.04858400209085373 -3.1207944076903846  0.
-0.05288792018784374 -3.1061172375257677  0.
-0.15388610266010405 -3.091925983772173  0.
-0.2546257630315383 -3.0781467127608564  0.
-0.35533461646679454 -3.064707485005182  0.
-0.4562465655353864 -3.0515421024216645  0.
-0.5575946538436805 -3.0385922649059394  0.
-0.6596037868324218 -3.025807977595641  0.
-0.7624835613130021 -3.0131453260598526  0.
-0.8664246800727126 -3.000560206288503  0.
-0.9716034016148591 -2.9879980641802817  0.
0.34593586587300884 -3.2793255804077037  0.
0.24130338793016856 -3.2629349939168977  0.
0.13769055782334158 -3.247171551610915  0.
0.03495000643032287 -3.231995747319898  0.
-0.06708531787425659 -3.217342378367883  0.
-0.16861124659003726 -3.2031326506236026  0.
-0.2698481513399406 -3.189284942414461  0.
-0.3710328776542713 -3.175721503687098  0.
-0.47240990983307796 -3.1623724018438497  0.
-0.5742226109707966 -3.149178147007934  0.
-0.6767037505590148 -3.136091289088959  0.
-0.7800643201209644 -3.123075503243762  0.
-0.8844841111636836 -3.1100985591184878  0.
-0.9901123111642078 -3.097116365295186  0.
0.3335044848034332 -3.390635158321329  0.
0.22831814637816825 -3.3743682791445773  0.
0.12413967043294669 -3.3587048322580215  0.
0.020864777647574006 -3.34360779452438  0.
-0.08165678588991762 -3.329001786938885  0.
-0.18362274814400312 -3.31479723591699  0.
-0.285263938045575 -3.300904807285957  0.
-0.3868302230890532 -3.287241447134138  0.
-0.4885794430161026 -3.2737329222490277  0.
-0.5907682833036932 -3.260316408940822  0.
-0.693641814570866 -3.2469442963079236  0.
-0.7974177867416194 -3.2335872299024886  0.
-0.9022665058607581 -3.2202299684815885  0.
-1.008297828021634 -3.206849554889243  0.
0.3205079393963865 -3.502269627441579  0.
0.21479335762346174 -3.486119478985363  0.
0.11008527854560132 -3.470565478710825  0.
0.006340127869770229 -3.4555627822934794  0.
-0.09658277340426222 -3.4410185487965608  0.
-0.19889479617353395 -3.426832758870051  0.
-0.3008451276581028 -3.4129126912180867  0.
-0.40269971896036233 -3.399173507595084  0.
-0.5047302472472491 -3.3855369142954768  0.
-0.607207347674089 -3.3719327770236043  0.
-0.7103924799894565 -3.3583056643763696  0.
-0.8145198033100297 -3.344626228158608  0.
-0.9197606411342133 -3.3308979430729297  0.
-1.026176836000107 -3.3171374932298865  0.
0.3069972659329375 -3.614224472337205  0.
0.20073617192098914 -3.5981676957140647  0.
0.09553015919972441 -3.582722607422987  0.
-0.00860323517769536 -3.5678103100974505  0.
-0.11182468086886964 -3.5533135085217618  0.
-0.21438188993461818 -3.539132944388305  0.
-0.31654988482162905 -3.5251852754457  0.
-0.4186099120977074 -3.5113914106867736  0.
-0.52084336682823 -3.4976706529167947  0.
-0.6235300984627339 -3.483940500001675  0.
-0.7269470006110993 -3.470123562783798  0.
-0.8313572214487428 -3.4561684701310504  0.
-0.9369622235430255 -3.4420858899846722  0.
-1.0437913388553695 -3.427953968564127  0.
0.29300811909258556 -3.726589198407279  0.
0.18612039139250386 -3.710575077621625  0.
0.08048121155794276 -3.695212885833327  0.
-0.023903916593936897 -3.680323508487298  0.
-0.12729497164366102 -3.6657885946083613  0.
-0.22999729411494696 -3.651544917423229  0.
-0.3323093265974169 -3.637537581040156  0.
-0.43451994685482753 -3.6237025424954763  0.