<?xml version="1.0"?>
<VTKFile type="UnstructuredGrid" version="0.1" byte_order="LittleEndian" compressor="vtkZLibDataCompressor">
<UnstructuredGrid>
<Piece NumberOfPoints="540" NumberOfCells="493">
<PointData>
<DataArray type="Float64" Name="displacement" NumberOfComponents="3" format="ascii" >
0.0 0.0  0.
0.0 0.0  0.
0.0 0.0  0.
0.0 0.0  0.
0.0 0.0  0.
0.0 0.0  0.
0.0 0.0  0.
0.0 0.0  0.
0.0 0.0  0.
0.0 0.0  0.
0.0 0.0  0.
0.0 0.0  0.
0.0 0.0  0.
0.0 0.0  0.
0.0 0.0  0.
0.0 0.0  0.
0.0 0.0  0.
0.0 0.0  0.
-0.17434949731690372 0.1567752160791401  0.
-0.06484551185553965 0.03661786664369923  0.
-0.04187099319311804 0.006914759708114775  0.
-0.024092739391939542 0.0001280444044184046  0.
-0.011350421239113754 0.001710815126555838  0.
-0.001004784258746385 0.00810415412367606  0.
0.007308553805726554 0.017231360048110343  0.
0.01388657350000223 0.02791832367092277  0.
0.01885251085203076 0.03928642967647602  0.
0.02229006247879564 0.05061896364206548  0.
0.02427002269543962 0.06126965833423478  0.
0.02487997787350519 0.07062626820150315  0.
0.024249488844764067 0.0781021525748296  0.
0.0225774169617107 0.08315902903298793  0.
0.0201632492207637 0.08536776925527753  0.
0.01741225299093421 0.08448914083031302  0.
0.014891647413315253 0.08060123826660061  0.
0.01202772304447372 0.0726942256141789  0.
-0.34057266585467966 0.2286851971436486  0.
-0.1720894342527039 0.1200475714873375  0.
-0.09790116739362038 0.054337978840809834  0.
-0.05699360082395747 0.03139710863096828  0.
-0.02718619997083287 0.027736588804129186  0.
-0.0041822859568193165 0.034621666069305716  0.
0.014121575083252237 0.047764094521429316  0.
0.028515053174125733 0.06458232474231164  0.
0.039422295696561506 0.08329328169523961  0.
0.04707477490993042 0.10249249008751068  0.
0.05163690524796581 0.12097384823155918  0.
0.05327136776609514 0.13763789676968632  0.
0.052197222376775834 0.1514608495296025  0.
0.048749966355611074 0.16151380815122354  0.
0.04344733494605032 0.1670362594040957  0.
0.03705228653553143 0.1675761692535838  0.
0.03054865558791489 0.16310472590603342  0.
0.02458430292609837 0.15418656875193085  0.
-0.49069373768895225 0.3009704923334893  0.
-0.29160480235844277 0.20153619888953447  0.
-0.17428609577114493 0.12810688822079533  0.
-0.10178344519405313 0.08950923511683959  0.
-0.051111597166769926 0.07695464286068705  0.
-0.012466863919305996 0.08014654547711494  0.
0.017851220118633264 0.09316472786586089  0.
0.041632139822426535 0.11224565443894038  0.
0.059751213190541 0.13476105189306944  0.
0.07269707954854197 0.15868763263814653  0.
0.08077698283072146 0.1823344599582756  0.
0.08424414615089106 0.20420494792279364  0.
0.08339089146396805 0.2229363764257497  0.
0.07864018274446923 0.23730136548007597  0.
0.07064787969241237 0.24627393305062154  0.
0.06040927172694225 0.24916634107066263  0.
0.04933918208319599 0.24586643873482728  0.
0.039118828018449986 0.23718186416661283  0.
-0.6323993793512134 0.3770474326351968  0.
-0.4147019243304305 0.2868212697066758  0.
-0.26378971000854073 0.21359333852686316  0.
-0.16009101168962692 0.16758041496118517  0.
-0.08526530896241241 0.14654306338233078  0.
-0.02838611168778229 0.1440539042585768  0.
0.01612417526638479 0.15414054613069458  0.
0.05104146842596858 0.17247793407525175  0.
0.07785606472016443 0.1958584366864952  0.
0.09740063698397121 0.22177601361781216  0.
0.11018641777796274 0.2481515874363225  0.
0.11658641829123631 0.27317250983819596  0.
0.11696721332806534 0.2952111901805196  0.
0.11180788872904056 0.3128063269540967  0.
0.10182966216489879 0.32470732202726454  0.
0.08814419517734148 0.32999573348231653  0.
0.07241265158145326 0.3283099493339214  0.
0.056931242271903465 0.32021452138763373  0.
-0.7695095962920863 0.45988962719910764  0.
-0.5387318729023886 0.3775618649700618  0.
-0.361817897874874 0.3080821293562022  0.
-0.22999218384891476 0.2595717252354416  0.
-0.13052315114630625 0.23296057335713458  0.
-0.05359478391591015 0.22481160036159856  0.
0.006963645456817506 0.23059337191530108  0.
0.05474485048601331 0.2461760913358246  0.
0.09181486429087066 0.26818191068649344  0.
0.1193953797632081 0.29384239479642177  0.
0.13824168185936533 0.3208226364325089  0.
0.1488757637924802 0.34708511708044404  0.
0.15174786080535133 0.3708065365140549  0.
0.14737641480109576 0.3903454058347269  0.
0.1364951662109508 0.40426401211847063  0.
0.12022499376880341 0.4114166371769513  0.
0.10027815999071431 0.411128268345  0.
0.07916753896884021 0.4034989495062446  0.
-0.9044771751552172 0.5507967055807386  0.
-0.6631087608227668 0.47533162395759476  0.
-0.46566820906504164 0.410791904352077  0.
-0.3094234892397952 0.3627884720192893  0.
-0.18642483206585025 0.333207135409764  0.
-0.08890049037403348 0.320590088048997  0.
-0.011032779434839489 0.32187360881440374  0.
0.0510650671762862 0.33366231373597216  0.
0.09986841303890485 0.3527977443241421  0.
0.13693679977321677 0.3765047789021953  0.
0.1632711063218355 0.4023545348938621  0.
0.1795545486329607 0.42819143867929715  0.
0.1863290282904673 0.45207120290529196  0.
0.1841451281854885 0.4722274762864673  0.
0.17371520751061206 0.487076350203671  0.
0.15609132245265417 0.495270963472384  0.
0.13288355177731218 0.49582481430610553  0.
0.1065187668910359 0.48833178526877485  0.
-1.0388615536208088 0.6506670404592675  0.
-0.7880522672499417 0.5812713300267727  0.
-0.5738927671816065 0.5219161375536115  0.
-0.3967212895196743 0.4760550736947239  0.
-0.2520954908640111 0.4454923747192193  0.
-0.13439904002062006 0.4298203000685817  0.
-0.03870030633531226 0.42713632200091795  0.
0.03872825676966137 0.4348728710334092  0.
0.10050506113211222 0.45033652269528074  0.
0.14840640496338278 0.470960234263023  0.
0.18362991784504365 0.4943820045147653  0.
0.2070059134052973 0.5184420058935306  0.
0.21916549406802532 0.54115635379998  0.
0.22068698001750484 0.560694550852204  0.
0.21224348993966097 0.5753759664528943  0.
0.1947724381570139 0.5836977531518935  0.
0.16968516852146964 0.5844091822068397  0.
0.13912874538214762 0.5766528823480954  0.
-1.1737295949348943 0.7601903834611583  0.
-0.9140581821859193 0.6962938772968428  0.
-0.6858213331775792 0.6419850367995794  0.
-0.4907171898312134 0.599085716672379  0.
-0.3266326659369022 0.5689039874646752  0.
-0.1898170703851142 0.5514630829228179  0.
-0.07641030252707758 0.545634744213916  0.
0.016859079911515553 0.549577487926929  0.
0.09250852385301157 0.561129676822197  0.
0.15237552489634706 0.5780614762960854  0.
0.19776928449860864 0.5982029329755566  0.
0.2296257592253443 0.6194931826255121  0.
0.24864775489305674 0.6399892883714273  0.
0.2554340643726902 0.6578608008071928  0.
0.2506110704046109 0.6713864220984  0.
0.23498311589727963 0.6789651834520349  0.
0.20971855668122086 0.679153933591008  0.
0.17658720507589934 0.6707460551167105  0.
-1.3098551861363952 0.8799692880096441  0.
-1.041683534054959 0.8211765751042714  0.
-0.8012435067964832 0.7716597054812598  0.
-0.5906743829376173 0.7320765099410387  0.
-0.4092783425418171 0.7031501878091534  0.
-0.25474059278220856 0.6849750160162381  0.
-0.12423411454207373 0.6768733914685461  0.
-0.015082334111710578 0.6775553902292138  0.
0.0749572885223334 0.6853523513674334  0.
0.147640229081445 0.6984126493234478  0.
0.20428836818731796 0.7148314955907514  0.
0.24588373786254475 0.732723544981126  0.
0.2731692138279758 0.7502559556180791  0.
0.286750838585337 0.7656593005135165  0.
0.28720550014805457 0.7772291789179766  0.
0.27520514396400975 0.7833291469896916  0.
0.2516709592876291 0.7824044116461746  0.
0.2179724151724486 0.7730163659205852  0.
-1.447834103278582 1.0105779423887868  0.
-1.1714628476186846 0.9566293183307187  0.
-0.9202120207879086 0.9116489007556267  0.
-0.6961898525333408 0.8754911235134981  0.
-0.49947222433563493 0.8483507707745865  0.
-0.3287540137672509 0.8302183264135069  0.
-0.18208231111656967 0.8206380351983645  0.
-0.0573935379629806 0.8186994265895758  0.
0.0471866167021392 0.823139245042237  0.
0.13322382110573872 0.8324656653937427  0.
0.20196312020339025 0.8450630070287871  0.
0.25436754635611125 0.8592648874159508  0.
0.29118017407511393 0.8733982790004373  0.
0.31299509641439605 0.8858053079030607  0.
0.3203375472316227 0.8948508578795692  0.
0.31375856255505963 0.8989230952403022  0.
0.29395410245254233 0.8964338817850304  0.
0.2619206411718513 0.8858257036442425  0.
-1.5881397056382613 1.1525932700093668  0.
-1.3038834360350926 1.1033361847675318  0.
-1.0429212480383907 1.0626806704117635  0.
-0.8071021640740492 1.029941861021796  0.
-0.5968519773032291 1.004893434427466  0.
-0.4115137403538372 0.9873617353433082  0.
-0.24980624809039775 0.9769727449577579  0.
-0.11021828734908558 0.9730570374953775  0.
0.008730510054393261 0.9746597744904152  0.
0.10835396299243534 0.9805996187604563  0.
0.18975083005534574 0.9895385790156381  0.
0.2538074706905838 1.0000427495324988  0.
0.30122571065999487 1.010626305868847  0.
0.33256526678158227 1.0197782749604223  0.
0.3482961235623709 1.025974556458199  0.
0.3488640406814871 1.027679139326866  0.
0.3347752354265473 1.0233386155823085  0.
0.3067093666470603 1.011374230510998  0.
-1.7311570401681986 1.3066114193190392  0.
-1.4393781699549382 1.2619780950764625  0.
-1.1696342998157176 1.2254934884864719  0.
-0.9234147519555217 1.1961242275050428  0.
-0.7012267094715253 1.1733363486339887  0.
-0.5027799996926489 1.1567949520984209  0.
-0.3272650523212824 1.1461355119907648  0.
-0.17362150490885353 1.1408332045386296  0.
-0.0407386710253338 1.1401565340207067  0.
0.07242320757915663 1.143176038710165  0.
0.16677498862659423 1.148800339056845  0.
0.24308137922589707 1.1558192301962842  0.
0.3019665327213928 1.162941486015121  0.
0.3439332744649546 1.1688217638519893  0.
0.3693913135547718 1.1720749950012048  0.
0.3786964470904556 1.171279255472656  0.
0.37220444405209696 1.1649690011115112  0.
0.3503458774760196 1.1516208970167627  0.
-1.8771947727861167 1.473253892761077  0.
-1.5783246395567092 1.433244020329535  0.
-1.3006435133348386 1.400834374051941  0.
-1.0452412871113577 1.3747813020590582  0.
-0.8125441115428798 1.3543447949168166  0.
-0.6024235349508875 1.3390619095369536  0.
-0.41436560649010235 1.3285512259846304  0.
-0.247645465550956 1.3223743313852347  0.
-0.10146685094379035 1.3199589421786626  0.
0.024945299970441356 1.3205732224894036  0.
0.13229716897438284 1.3233342347855999  0.
0.2212037369929717 1.3272336436004597  0.
0.2921837106754961 1.331167082518754  0.
0.3456631160364453 1.3339585837797245  0.
0.3819854266102786 1.3343757938375003  0.
0.40142914812616687 1.3311346353537614  0.
0.4042362368400952 1.3228936786790082  0.
0.3906550591509718 1.30823908735179  0.
-2.026496495810541 1.6531686751072885  0.
-1.721049966832494 1.6178348849751534  0.
-1.4362428928026452 1.5894566207164127  0.
-1.1727619193278813 1.5666820626940752  0.
-0.930856899268873 1.548649082922347  0.
-0.7104177352995038 1.5348102640393337  0.
-0.5110820177567377 1.5247685659645396  0.
-0.33234876683406667 1.5181437143509  0.
-0.1736661175784451 1.5144809022329246  0.
-0.034490897461406454 1.5132032266392983  0.
0.08568139754591629 1.5135998227945664  0.
0.18730368475512013 1.5148371583270328  0.
0.27077061051867385 1.5159805200902468  0.
0.33641627409575536 1.5160155227493448  0.
0.38451185664090065 1.5138634658340977  0.
0.41526785530780436 1.5083877942754633  0.
0.42884247639892253 1.4983908209664425  0.
0.42536021613610064 1.4826006860674166  0.
-2.1792394143368807 1.8470266115077423  0.
-1.867826408856214 1.8164611835816291  0.
-1.5767117689310246 1.7921162962198278  0.
-1.3061916335450585 1.7726074320206133  0.
-1.056291586407455 1.7570164087477114  0.
-0.8268226620584332 1.7447542852788487  0.
-0.6174623802871901 1.735423994763658  0.
-0.4278320805276318 1.7286958872867098  0.
-0.2575497944863424 1.7242106142115199  0.
-0.10626013269427753 1.721517730132076  0.
0.02635786949349608 1.7200492930820597  0.
0.14059516600290536 1.7191203595366225  0.
0.2367140791326269 1.717944509754442  0.
0.3149453620205711 1.7156534776022745  0.
0.37548256185844986 1.711313155009849  0.
0.41847346876495733 1.7039321162394845  0.
0.4440148668979621 1.692461270166986  0.
0.45215311768602473 1.6757843277857247  0.
-2.335539138638093 2.055515088754897  0.
-2.0188728522520885 2.029837325395972  0.
-1.722298635098436 2.00956566587546  0.
-1.4457542732160975 1.993338447790859  0.
-1.1890192021974237 1.980230133531896  0.
-0.9517639693496773 1.9696468271078034  0.
-0.7336211681533713 1.9612119710826403  0.
-0.534247779948549 1.9546518223024931  0.
-0.3533585237218601 1.9496959148977826  0.
-0.1907363026062685 1.9460058784844971  0.
-0.04621439406527422 1.9431375577256191  0.
0.08034528107682606 1.9405332827293584  0.
0.18906904198424504 1.937533798403902  0.
0.2800787539609089 1.9333977593942808  0.
0.3534846098191785 1.9273197263772321  0.
0.4093734863291476 1.9184416547829575  0.
0.4477948833906398 1.9058559920696168  0.
0.4687492895098687 1.8886001273478263  0.
-2.495446065591621 2.2793310444545134  0.
-2.174350432076106 2.2586747721089724  0.
-1.8732125040389445 2.24254738000372  0.
-1.5916607118281385 2.229647944738826  0.
-1.3292277794070446 2.2190763139611205  0.
-1.0854084253273033 2.2102606290864024  0.
-0.8597266168662582 2.2028641467193992  0.
-0.6518015085834292 2.1966804172754335  0.
-0.4613759311789388 2.1915321880550325  0.
-0.28831607798282743 2.1871910902633793  0.
-0.1325775864138201 2.1833288281772325  0.
0.005840084747214799 2.179501556963838  0.
0.12692966988256 2.175159534203561  0.
0.23069857507860084 2.1696686324546763  0.
0.31716802755940593 2.162332493031729  0.
0.3863625877143422 2.152408227507456  0.
0.4382908706537626 2.139113882842458  0.
0.47292689779649105 2.1216272196039485  0.
-2.6589521131579517 2.519171898207427  0.
-2.33435624072572 2.5036723667633045  0.
-2.0296079645664284 2.4917852173951895  0.
-1.7440846148160232 2.482290629855962  0.
-1.4770938790521446 2.4743311905241705  0.
-1.2279350369745354 2.4673726461121106  0.
-0.9959777717990668 2.4611319945135923  0.
-0.7807402804356643 2.4554822282856796  0.
-0.5819292996788897 2.4503499418013095  0.
-0.3994371789585626 2.445624892151663  0.
-0.23330291068874587 2.4410979907126515  0.
-0.08364622079712689 2.4364356188873546  0.
0.04939653681647213 2.431186225764308  0.
0.16571172708281026 2.424805622857011  0.
0.26522514807461733 2.416685638635088  0.
0.34789245141379554 2.4061766236609485  0.
0.41368139985341673 2.3926002691454475  0.
0.46254771706037123 2.375253366255124  0.
-2.825992153726326 2.775726704316228  0.
-2.4989247825451804 2.7655081314340673  0.
-2.1915743808427224 2.7579765679462254  0.
-1.9031440395632802 2.7519955743782503  0.
-1.6327529452779699 2.746752048583457  0.
-1.3795016728074683 2.741752889655837  0.
-1.142573043907048 2.7367746463368254  0.
-0.921330840869485 2.7317784126967206  0.
-0.7153797966605185 2.726806833287714  0.
-0.5245802079672002 2.7218830431604877  0.
-0.3490076690372828 2.7169315817642605  0.
-0.1888778702237527 2.711737138025806  0.
-0.044454821497779295 2.705944273903416  0.
0.08401980125748629 2.6990863315013143  0.
0.19636316090784364 2.690623621529983  0.
0.29245188301668057 2.6799759434609176  0.
0.37220543540235035 2.6665431289892156  0.
0.43556047665695957 2.649714355407673  0.
-2.9964650386174556 3.0496710009748424  0.
-2.668027802194247 3.04483434918078  0.
-2.359122922509174 3.0417883439403006  0.
-2.0688780252730217 3.0394614240133135  0.
-1.7962684178207686 3.0370706520602386  0.
-1.5402063322344035 3.034155723211831  0.
-1.299669188942791 3.030549265268893  0.
-1.0738188487463358 3.0263021812625746  0.
-0.8620955886455929 3.0215822903236536  0.
-0.6642569224982815 3.016563914311349  0.
-0.4803593260227322 3.0113291261811694  0.
-0.31068036312268865 3.0058028722119436  0.
-0.15560561452361904 2.9997368009451475  0.
-0.01551785967099417 2.992737644762707  0.
0.10927001018527673 2.984317649504465  0.
0.2185369973284625 2.9739419137214607  0.
0.31214032450423995 2.961060578533895  0.
0.3899882534098286 2.945125569573172  0.
-3.170259619485161 3.341671853300895  0.
-2.841582969512535 3.342285177594973  0.
-2.5321867373657807 3.34386539533283  0.
-2.2412305779401023 3.3453624758071348  0.
-1.967603192701181 3.345994549268459  0.
-1.7100494926206853 3.3453161216986858  0.
-1.4673317059764168 3.3432041575758045  0.
-1.2383763732680146 3.339792449321547  0.
-1.0223981607097716 3.3353748528202236  0.
-0.8189743525160891 3.3302907923299063  0.
-0.6280630352891938 3.3248086109164077  0.
-0.4499486436677598 3.3190301139683576  0.
-0.2851203451294559 3.3128436573826496  0.
-0.1341213471869641 3.3059397262956614  0.
0.0025733328303787 3.2978721318153905  0.
0.12461265647892375 3.2881276303982805  0.
0.23176723063425728 3.2761767618094044  0.
0.32389908298806525 3.2615018956942765  0.
-3.3473172962900986 3.6524096186690422  0.
-3.019486179850265 3.6585045014218567  0.
-2.71062694706429 3.66485832218223  0.
-2.420045078289524 3.670370076233306  0.
-2.1466004680264836 3.674217098204711  0.
-1.888895668036954 3.6759468239227964  0.
-1.6454815175009974 3.6754657393612136  0.
-1.4150312245170649 3.672976670645211  0.
-1.1964840707703561 3.6688884601845495  0.
-0.9891560533145789 3.6637063555235163  0.
-0.7928050755651654 3.6579078483817815  0.
-0.6076276621679106 3.651818270181327  0.
-0.434165593464147 3.645517271569925  0.
-0.2731303584138875 3.638815134631131  0.
-0.12520918458975044 3.6313108779642844  0.
0.009061282426832339 3.6224909680166353  0.
0.12932260991768496 3.611813421764458  0.
0.23536213043112822 3.5987546107253947  0.
-3.5277271360148883 3.9826549442188615  0.
-3.201663656757441 3.9942353975400864  0.
-2.894267004444531 4.005512816211055  0.
-2.605088889446562 4.015227054743481  0.
-2.332995433710843 4.0224675727192105  0.
-2.076467894964295 4.026759778899963  0.
-1.8338624510132462 4.028033766911779  0.
-1.6036006069479034 4.026548695097425  0.
-1.3843238611804995 4.022806602754782  0.
-1.1750215299306266 4.017457411457076  0.
-0.9751378632426544 4.011186517221287  0.
-0.7846379222728416 4.004580612463432  0.
-0.6039917085314757 3.997987389374259  0.
-0.43403833382569884 3.991417279776578  0.
-0.27573008199052285 3.9845519386991057  0.
-0.1298839552881633 3.976864742908162  0.
0.0029340203704256423 3.967760918336996  0.
0.12238738959961837 3.9566674780474282  0.
-3.7118942189868167 4.333430046878155  0.
-3.388181330077658 4.350509609745862  0.
-3.0829801561972885 4.366854889746666  0.
-2.7961281033785816 4.380903825176994  0.
-2.5264841342260063 4.391616614766733  0.
-2.2724012809855427 4.398513445092643  0.
-2.0320579855368717 4.40157120768033  0.
-1.8036558336363095 4.40111163869433  0.
-1.5855596599829966 4.397708471886362  0.
-1.376413088172231 4.392112352504333  0.
-1.1752612692461437 4.385171978017196  0.
-0.9816690172415435 4.377726649009697  0.
-0.7958147164598017 4.370455673061524  0.
-0.6184833792244877 4.363701417232187  0.
-0.45087806481547793 4.3573465704398995  0.
-0.29423036526061014 4.3508747568022725  0.
-0.14947083280037554 4.343594898240203  0.
-0.017158439096006665 4.334816669397969  0.
-3.9007988619266376 4.706386706318929  0.
-3.5794229120871717 4.729069618180601  0.
-3.2768600717034104 4.75060925585639  0.
-2.993123676491852 4.768943705931281  0.
-2.726928580479542 4.782926550975721  0.
-2.476435425130621 4.792152134464146  0.
-2.239651198518635 4.79673321189181  0.
-2.014616465804086 4.797106261210947  0.
-1.7994972941188248 4.7939182416690675  0.
-1.5926559008095584 4.787970218473295  0.
-1.392735382741324 4.780184204738008  0.
-1.1987890444578468 4.771558321969551  0.
-1.010444848840753 4.763072502929291  0.
-0.8280630079643959 4.755510217374907  0.
-0.6527958029211597 4.749200194551083  0.
-0.4863464939673404 4.7438122370224525  0.
-0.33029918570992556 4.738520024550055  0.
-0.18567101997617136 4.732430801007036  0.
-4.096367536290949 5.104563931249229  0.
-3.7763814139595846 5.133277032400808  0.
-3.4765663390027437 5.160010502938933  0.
-3.1966329720199482 5.182140322363845  0.
-2.9348037602762966 5.198519371634849  0.
-2.6888644516357196 5.209074491010614  0.
-2.4566430857830515 5.214251214267439  0.
-2.236102979560198 5.214720249580734  0.
-2.0253487910227936 5.21124931984924  0.
-1.8226107206380366 5.204666186570492  0.
-1.6262689985658392 5.195867726846919  0.
-1.4349192874134662 5.1858437778815905  0.
-1.247515448525977 5.1756829737007  0.
-1.0635967295683084 5.16651108298022  0.
-0.8835830769530569 5.159285602925079  0.
-0.7090454712050183 5.1543725105900275  0.
-0.5424932294602625 5.151082933583522  0.
-0.38600258178407365 5.148058805132409  0.
-4.302146464894929 5.534350600489849  0.
-3.9811863127732012 5.5699765530282  0.
-3.6840388028322653 5.601603705598261  0.
-3.4087534203090284 5.6257448465093916  0.
-3.1521499223412612 5.642130273152945  0.
-2.9114424531389504 5.651568238487614  0.
-2.6843067993184895 5.655127533377715  0.
-2.4687435786865852 5.653862682658261  0.
-2.26295800839391 5.648737580458304  0.
-2.0652607576984265 5.640628860439603  0.
-1.8740166857432428 5.630366141295862  0.
-1.6876279991435512 5.618793463480413  0.
-1.5045736537095002 5.606844003061846  0.
-1.3235407232387997 5.595612824821962  0.
-1.143684280480722 5.586379121882578  0.
-0.9651269483905353 5.580442275816233  0.
-0.789773356710973 5.578424280043414  0.
-0.621715650766808 5.579025204446216  0.
-4.522637386083122 6.00911991691917  0.
-4.197958337141107 6.0549907610473594  0.
-3.904869502567214 6.088009469788169  0.
-3.6353191239841625 6.1087125044600485  0.
-3.3843989504750778 6.119627134450867  0.
-3.1489143345750326 6.123026833881575  0.
-2.9265560572673763 6.120735826292235  0.
-2.7154946102481565 6.1141906799902035  0.
-2.514163113006013 6.104534761060208  0.
-2.321118400669509 6.0926998166846955  0.
-2.13494566031221 6.0794729561182415  0.
-1.9541946634882477 6.065558685122808  0.
-1.7773295522603079 6.051648217815407  0.
-1.602706029239447 6.038512891152162  0.
-1.4286060590562202 6.027142047193155  0.
-1.2533853452342294 6.018935804958114  0.
-1.0759659341353938 6.015848603243709  0.
-0.8977535904767521 6.019252542434825  0.
-4.760424737874788 6.573974825168251  0.
-4.441568602554111 6.619056204925822  0.
-4.15477043367267 6.637692989731799  0.
-3.8900236634458527 6.641855033330582  0.
-3.642984244902887 6.637087140232242  0.
-3.410794134417 6.62647031565513  0.
-3.1913512368759647 6.611927674114696  0.
-2.9829996849836387 6.5947911071300265  0.
-2.784351928251562 6.576068726549531  0.
-2.594180500188023 6.556580681247255  0.
-2.411331435246906 6.53703227700128  0.
-2.2346560588083255 6.518057779027601  0.
-2.062940814670979 6.500251262994707  0.
-1.8948373857692435 6.4842002019987754  0.
-1.7287656095609305 6.4705438922669245  0.
-1.56277442704248 6.460120710805232  0.
-1.3942712602212364 6.454436415144956  0.
-1.219290575315303 6.457673708999743  0.
</DataArray>
<DataArray type="Float64" Name="Nodal_sigma_xx" NumberOfComponents="1" format="ascii" >
-17.55350846975796 
-12.835061674126688 
-6.63034707939649 
-3.965827405494111 
-1.897666383828549 
-0.29515065644651545 
0.979274200643345 
1.9719025749160224 
2.7140425827543195 
3.226229212976068 
3.5259092270159025 
3.631446333934129 
3.5662012637808242 
3.3629040083858976 
3.0673550664279112 
2.7431758652968177 
2.420137971225258 
2.257068708603843 
-16.102218268130017 
-12.625073368351545 
-7.298545997750629 
-4.234540053526741 
-2.087081154470391 
-0.420271309595143 
0.8926927206960888 
1.9168050157142322 
2.6865531707304924 
3.2247455322062324 
3.5491437969271766 
3.6772878184764166 
3.6305724197227374 
3.438602013504493 
3.1435475515091156 
2.8034748607678104 
2.469776857154174 
2.3090394425160006 
-13.91365678178223 
-12.031943491093156 
-8.156978475401374 
-4.8304682961864165 
-2.4938925883855876 
-0.7088104197290875 
0.6877199237468173 
1.7780857261349041 
2.606384783811946 
3.19959378821025 
3.5767354869142935 
3.7542234271334065 
3.750087725671472 
3.58823885984033 
3.3033035008723948 
2.944694069276489 
2.5826987484716386 
2.4112341024475312 
-12.657749254442516 
-11.325246579533244 
-8.362402038832123 
-5.357924404000378 
-2.930618501486454 
-1.0506018279192593 
0.4280359747156436 
1.587916531778976 
2.478989210872436 
3.131858012605724 
3.5671546720745857 
3.8009521545426583 
3.848880466167303 
3.730121613013284 
3.471941320750199 
3.1156376779334174 
2.7228855663184732 
2.5265577298752513 
-11.776372656179143 
-10.728018246260433 
-8.31052487866454 
-5.6636359876731595 
-3.321769280359071 
-1.4023334112179968 
0.1366710354043982 
1.3595750281044965 
2.3122962661801854 
3.026098279266389 
3.522316245866462 
3.8167665748908712 
3.9232696728836105 
3.857083762398359 
3.6389142804296535 
3.3001195855027774 
2.88934988254285 
2.673362622365345 
-11.149839555469615 
-10.23102355244551 
-8.142446298277001 
-5.807809184732379 
-3.614688832697177 
-1.7249154878824042 
-0.1592362888858569 
1.1101232933502203 
2.117131063768498 
2.888978610721885 
3.4458011167177425 
3.8025499393674353 
3.971403995852497 
3.9643735181417377 
3.796432368691427 
3.489671395384657 
3.0788517007652683 
2.8527610325898944 
-10.689229622089488 
-9.82706162719294 
-7.932019217856649 
-5.842588398671194 
-3.8125704287509175 
-1.9932118967674657 
-0.43637481216318486 
0.8576082099738553 
1.9061918288936948 
2.7290809300579797 
3.3429719223618544 
3.7609444665387346 
3.9933591676399196 
4.049439318281374 
3.939421413002777 
3.6775266004749847 
3.286097541708406 
3.061450002191656 
-10.341672632456373 
-9.500317612225379 
-7.717066846205258 
-5.809816403547549 
-3.931541398975579 
-2.2015343453234717 
-0.6793959753665801 
0.6173791684891505 
1.6922276978694106 
2.556042337739404 
3.2206276955747875 
3.6962121547276485 
3.9910086249721353 
4.111752496897638 
4.064887337025843 
3.858425174242905 
3.504688303263894 
3.29291230186024 
-10.072272387055634 
-9.234989725353007 
-7.514935431399651 
-5.7390507544419815 
-3.990786498248153 
-2.353817371878811 
-0.8819360165912988 
0.40009165196636276 
1.4861281916093807 
2.379337595819492 
3.086276753526233 
3.6137955900295937 
3.9677030434557223 
4.1524657167733 
4.171562245790455 
4.028398251661562 
3.7278574436288285 
3.539005167334386 
-9.857045732429285 
-9.016679839398282 
-7.331811762251983 
-5.6495094081891395 
-4.007648765420456 
-2.4584697034910157 
-1.0437970847810418 
0.21135624697825672 
1.2958220639844114 
2.2071387574793624 
2.9472565490851172 
3.5196763744767754 
3.9277821221129967 
4.174006463506027 
4.25957006108099 
4.184671047125242 
3.949116327216344 
3.791153412649021 
-9.678385663928236 
-8.832746535354053 
-7.167858025400912 
-5.552672043853937 
-3.995960904986446 
-2.5251194795623126 
-1.1685243604314095 
0.052708745189930795 
1.1260193896973856 
2.045604724688528 
2.809949726439469 
3.4196839214773425 
3.876002560938608 
4.179610609271112 
4.330083129523509 
4.3255597642690145 
4.162733340253283 
4.041244635887489 
-9.522421574784072 
-8.672034332689515 
-7.0200581774925155 
-5.454545955685519 
-3.965827654902209 
-2.5628431411701817 
-1.261526326065907 
-0.07722369575296362 
0.9785613415269565 
1.898634293804866 
2.679259302382353 
3.3188975781869283 
3.816974338563514 
4.172839678444815 
4.384960524389889 
4.450325454443628 
4.364031671882659 
4.28222870662129 
-9.377436375589735 
-8.524467758641427 
-6.883718114510339 
-5.357384984362454 
-3.924014115984053 
-2.5793125654279376 
-1.3287878118858767 
-0.1816543761081889 
0.8529907054580467 
1.7679581952287466 
2.558364954632213 
3.221227409085796 
3.754685157200403 
4.1571308531996145 
4.426386362850608 
4.558978950866689 
4.549515095904327 
4.508456644059243 
-9.232924938302597 
-8.380677641898318 
-6.753222113443909 
-5.2608706534874035 
-3.8745029300413965 
-2.5804844361436055 
-1.3760597755171078 
-0.26478279164207674 
0.7471608748302213 
1.653407991667704 
2.4486926075441806 
3.129177800416448 
3.6921567715238743 
4.135424898394819 
4.456535046616207 
4.652051964737597 
4.7168445205029865 
4.7157908016371834 
-9.079063707462922 
-8.23171089916768 
-6.622370813424099 
-5.1628646901158115 
-3.8190080424923307 
-2.5705614785194983 
-1.4083837761082507 
-0.3311695656373685 
0.6577774607241244 
1.5532534533827658 
2.3500231307340766 
3.043764707722689 
3.631231130976598 
4.109887050656344 
4.477285030003457 
4.730357641139524 
4.8647028974267705 
4.901537889295845 
-8.906435085250578 
-8.068833028438814 
-6.484496128875311 
-5.059839455006413 
-3.757359376116678 
-2.55205726308535 
-1.4298254540565332 
-0.3852907219653978 
0.5808459561660644 
1.464534200491587 
2.2606599738705735 
2.964527422665504 
3.5724607150049583 
4.081715735385764 
4.48998825533505 
4.794756388097223 
4.99258868628654 
5.064263613690546 
-8.705945112424073 
-7.883431724844956 
-6.332470066643969 
-4.9470766690731764 
-3.6877210117634567 
-2.5258442686321043 
-1.4432999396494854 
-0.4312151348507828 
0.5120190227115634 
1.383338454222769 
2.177599370471221 
2.889580132079833 
3.5150569815683967 
4.051015296794754 
4.4952877108018745 
4.845934339172768 
5.100565362882832 
5.203528898595673 
-8.468919633657109 
-7.667026040616792 
-6.1586622096106955 
-4.8186961136386675 
-3.606635297141933 
-2.4911073455749566 
-1.450391966196806 
-0.4723374814687679 
0.44687374421668635 
1.3050222660644182 
2.0966581093972056 
2.815650026311502 
3.4568503409373452 
4.01668882512084 
4.492955620336753 
4.884190777472877 
5.188981860673742 
5.319570944226577 
-8.187365101018665 
-7.411396389258204 
-5.9548944107609 
-4.667565143000461 
-3.5089061862499795 
-2.445154483045483 
-1.451078309417079 
-0.5110613623977547 
0.38118342220199614 
1.2243748588651648 
2.01251815502955 
2.738032975659972 
3.3941924181704155 
3.976303333035473 
4.481721457830413 
4.909216663537671 
5.258175107896435 
5.412957301590281 
-7.854440728746031 
-7.108859712952284 
-5.712424399102408 
-4.4851392120495275 
-3.3873424135974797 
-2.3830517088980407 
-1.4432658582960818 
-0.5483163531565406 
0.31129316878255087 
1.1357888471375714 
1.9186911132025246 
2.65041423015412 
3.321715434733765 
3.925843336170545 
4.459025265069114 
4.919823530683412 
5.308142017260259 