<?xml version="1.0"?>
<VTKFile type="UnstructuredGrid" version="0.1" byte_order="LittleEndian" compressor="vtkZLibDataCompressor">
<UnstructuredGrid>
<Piece NumberOfPoints="3024" NumberOfCells="5796">
<PointData>
<DataArray type="Float64" Name="displacement" NumberOfComponents="3" format="ascii" >
0.21476921915942676 -1.9522413374402783  0.
0.07079138318272588 -1.940904914589208  0.
-0.06965327220813548 -1.9304548409060847  0.
-0.20958706976101826 -1.9208495765784541  0.
-0.35213839707789235 -1.911295280391725  0.
0.2234228964623678 -1.8043605218020753  0.
0.0807959445082386 -1.7931329650876546  0.
-0.058981517946361174 -1.782925306402575  0.
-0.19843528253929482 -1.773250215873017  0.
-0.34039959206063336 -1.763800667199118  0.
0.23056654703486554 -1.6580052942853365  0.
0.08971728882943994 -1.646338668140316  0.
-0.04869858596342913 -1.6360267494826417  0.
-0.1869867605564344 -1.626727469850501  0.
-0.3274646658507889 -1.618156629350719  0.
0.23589868277931259 -1.5133521660017835  0.
0.09741010745059624 -1.5012465247163176  0.
-0.03889482299991398 -1.4909338792323439  0.
-0.17511577378900722 -1.482137019005758  0.
-0.3135187847309667 -1.4745738014311784  0.
0.23932834036115777 -1.3709060885694881  0.
0.10374440427405224 -1.3585932332302526  0.
-0.029645647922379552 -1.3483777664383918  0.
-0.16309601887036823 -1.3401619773157007  0.
-0.29871142710323656 -1.333581766092991  0.
0.24065865273666504 -1.2314398501499269  0.
0.10877862955903896 -1.218952714796249  0.
-0.02107458252714999 -1.2089450067752652  0.
-0.1509502016629472 -1.2013951237450868  0.
-0.28306449641363524 -1.1958724453594372  0.
0.23981962302695686 -1.0958226664829112  0.
0.11229398647029214 -1.0831638329879825  0.
-0.013230210623818713 -1.0734577649276278  0.
-0.13887409011810944 -1.0666056986559354  0.
-0.2668130917516319 -1.0623090712873622  0.
0.2367568753349506 -0.9644836610181498  0.
0.11423625820072571 -0.9519324722116289  0.
-0.006235892249308755 -0.9425775407943277  0.
-0.12688902190306556 -0.9364929080132267  0.
-0.24981993125826352 -0.9333155718253588  0.
0.2313162659908718 -0.8386550934876686  0.
0.11463732452705983 -0.8259658027363767  0.
-0.00011509155455993603 -0.817024282776753  0.
-0.11500056922885363 -0.811802470700972  0.
-0.23230413758276872 -0.8100756787496699  0.
0.22355837477894736 -0.7185468102719752  0.
0.11329521276904495 -0.7060690165353838  0.
0.0050747060168258775 -0.6975451190586488  0.
-0.10344988614202276 -0.6932166478990549  0.
-0.21439971787722809 -0.6926970635151087  0.
0.2133309955971706 -0.6052580439939517  0.
0.11036320865515861 -0.5928724370953677  0.
0.00920266779322425 -0.5848049267518723  0.
-0.09211140768695719 -0.5813991686611482  0.
-0.19584414027010308 -0.5822489285988476  0.
0.200638326420838 -0.4995658948930634  0.
0.10554964506588461 -0.48716922627383247  0.
0.012323941275834903 -0.4796182628094753  0.
-0.08114970699766949 -0.4771087602944748  0.
-0.177078922110833 -0.47949219410421473  0.
0.18547575805723515 -0.4017861405878747  0.
0.09892735879105499 -0.3897129277445037  0.
0.014354372456497287 -0.38265918638156865  0.
-0.07047501685526275 -0.3810457104797795  0.
-0.15770185966343908 -0.38458050746160055  0.
0.1678124319054031 -0.3134605067993739  0.
0.09060136492665676 -0.3012630313987255  0.
0.015351090654219144 -0.29467664476013355  0.
-0.06003899475592516 -0.29397904932770347  0.
-0.1379269996092158 -0.29915660231721714  0.
0.1477153087201124 -0.2347156253764571  0.
0.08043808209104425 -0.22270127259288208  0.
0.015340209412864835 -0.21643619418485427  0.
-0.05004454484364383 -0.21659300375362908  0.
-0.11791237716926896 -0.22286876166115643  0.
0.1251897306064322 -0.166454739258582  0.
0.06873990130149739 -0.15446809263820668  0.
0.01425828547911803 -0.14855624095545597  0.
-0.040211748851534126 -0.14955684863364976  0.
-0.09709935795441549 -0.15715247468294738  0.
0.10028078248507269 -0.10987350115604518  0.
0.05518248918285412 -0.09754696663785357  0.
0.012288372201002241 -0.09188405871151913  0.
-0.0306360482853194 -0.09354803106445764  0.
-0.07608208662648276 -0.10249662689035194  0.
0.07320134650206057 -0.06496461682700394  0.
0.03991209409959338 -0.05263871608611039  0.
0.009380833866387007 -0.04705001485387302  0.
-0.020975449198515385 -0.049346645384793664  0.
-0.054062701850904456 -0.05922086160875612  0.
0.04440836209927535 -0.03308653433506381  0.
0.023136748348939046 -0.02021927540007726  0.
0.005645500544608116 -0.015079420717347374  0.
-0.011189655497331618 -0.017704471718101165  0.
-0.0309540749938588 -0.02877728431344092  0.
0.014369949583447441 -0.010137320222443456  0.
0.006467569265555758 -0.0020681319535075095  0.
0.001427936698290463 0.0006071567876836234  0.
-0.00309952767382281 -0.0008385046407744658  0.
-0.00736001849534795 -0.007522705215940907  0.
0.0 0.0  0.
0.0 0.0  0.
-0.4699816485381532 -1.9791532955895443  0.
0.2469668197043325 -2.0316014771692874  0.
0.20195635646095544 -1.9778608238327358  0.
0.1747993184754718 -1.9868203195618452  0.
0.14936537787320042 -1.9738406674954285  0.
0.14045482593082345 -1.9466623940421326  0.
0.15319996407098688 -1.9211019654734631  0.
0.18023627852011162 -1.9121426258802283  0.
0.2057499083182694 -1.9250692310603792  0.
0.05832602805653504 -1.9660320910841418  0.
0.03182383535866756 -1.9748608782050934  0.
0.006939866647473661 -1.962196214112499  0.
-0.00180165314475259 -1.9355776860219553  0.
0.010645526535135412 -1.9104386865232417  0.
0.03710174005561526 -1.9015696925952899  0.
0.0620224925969894 -1.9142318952014952  0.
-0.08200386726447041 -1.9553895455266868  0.
-0.10827510716682766 -1.9642122868810887  0.
-0.13300622819997035 -1.9517106480605149  0.
-0.14165539129308427 -1.925282554523202  0.
-0.1292813839474954 -1.9003307693188927  0.
-0.1030348338846076 -1.8914561031317088  0.
-0.07832122302559727 -1.9040075429439831  0.
-0.22208181985150724 -1.9459543606060752  0.
-0.2485650786863957 -1.9548842331446314  0.
-0.2735175695445354 -1.9423171567267365  0.
-0.28221546964060973 -1.9156516724550623  0.
-0.2696850575076287 -1.8905123227923746  0.
-0.2431951060168031 -1.8815884087631893  0.
-0.2182767625311003 -1.8941975660834836  0.
-0.36495004972811107 -1.9368590420330687  0.
-0.3920017224906512 -1.9459289124675072  0.
-0.41751403344264354 -1.9330595058293571  0.
-0.42642411447977224 -1.9058580102612626  0.
-0.41351356222238955 -1.8803416234951909  0.
-0.3864026354646101 -1.8713427516948853  0.
-0.3609769137923649 -1.8841788088465443  0.
0.21091277989680215 -1.8295750221762757  0.
0.1842094120893642 -1.8383803586809087  0.
0.15909279441570454 -1.8256458505825808  0.
0.15021483554250167 -1.7988797514678012  0.
0.16270624827106622 -1.773704202678986  0.
0.1892938225879419 -1.764882080495071  0.
0.2144476876001504 -1.7776178821678719  0.
0.06840232494321015 -1.8181828069445813  0.
0.04202070616804442 -1.8270152119941105  0.
0.01720544271828754 -1.814403338510292  0.
0.00848687551921675 -1.7878572259132395  0.
0.020861116640643194 -1.7628261683059483  0.
0.04718939822724882 -1.7539720722271677  0.
0.0720303623268327 -1.7665791907050863  0.
-0.07130383115848976 -1.8079347489093256  0.
-0.09757105140651813 -1.8167929916087684  0.
-0.12229130862022848 -1.8042519545342102  0.
-0.13090343573541718 -1.7777651397798948  0.
-0.11855089520231238 -1.7528084030928237  0.
-0.09232180107233058 -1.7439351917562762  0.
-0.06762004887215363 -1.7564841939111762  0.
-0.21087954614449278 -1.7982868183312932  0.
-0.23726158416423532 -1.8071863518901985  0.
-0.2620985875526065 -1.7946416671222196  0.
-0.27076371753124817 -1.768087369708713  0.
-0.2582661381423503 -1.7430627223878754  0.
-0.23187509700296072 -1.7341717237526595  0.
-0.207077031884981 -1.746727464981386  0.
-0.3530651647075027 -1.7890004036065745  0.
-0.3797742300997547 -1.7979316357651338  0.
-0.40492119182561037 -1.7853247218659167  0.
-0.41365082861059677 -1.7585689217517018  0.
-0.4009014984535115 -1.733439934620468  0.
-0.37416987176854277 -1.724502914275629  0.
-0.3491157517998612 -1.7370940883611077  0.
0.21829246078201694 -1.682944538752323  0.
0.19194884026734496 -1.6916395701700528  0.
0.16711367693546691 -1.6790172640220833  0.
0.1582430392885238 -1.652570386450299  0.
0.17048082705436537 -1.627627022071711  0.
0.1967453274884513 -1.6189489091369254  0.
0.22162016606407967 -1.6315863895322305  0.
0.07753507608185133 -1.6711241917145507  0.
0.05145418073078552 -1.6798631302502554  0.
0.026879846026450608 -1.6673773840762232  0.
0.018200051654945915 -1.6411156732575236  0.
0.030385969239945354 -1.6163311259190558  0.
0.05640996499918461 -1.6075739597415546  0.
0.08097271477096726 -1.6200747510301718  0.
-0.06089675276121653 -1.6607685304279107  0.
-0.08690864234865729 -1.6695550421433927  0.
-0.11140364507197717 -1.6571563016901374  0.
-0.11997096292787593 -1.6309590366314521  0.
-0.10773304004744377 -1.6062349664896955  0.
-0.08176489392482315 -1.5974273698188421  0.
-0.057291983256118874 -1.6098375796572924  0.
-0.19931538120955597 -1.6515110791520276  0.
-0.22543569186118725 -1.660357472438762  0.
-0.2500118010361625 -1.6479828262497889  0.
-0.258549511944959 -1.62173593967301  0.
-0.24615400745184896 -1.596985450595575  0.
-0.2200607632070585 -1.5881108750766486  0.
-0.19552178682306787 -1.600495324441896  0.
-0.34003914885694186 -1.6430714961198296  0.
-0.36644453512533726 -1.6519735638387205  0.
-0.3912928914037711 -1.6395766889466115  0.
-0.3998837981463348 -1.6131323746931185  0.
-0.38724639115711784 -1.588296697016703  0.
-0.36078773791803914 -1.5793811696766722  0.
-0.33601224845473354 -1.5917571315504746  0.
0.22391914727441223 -1.5379578038301238  0.
0.1979852615941325 -1.5465134090816814  0.
0.1735219796870886 -1.5340508978683964  0.
0.16468378458779484 -1.5079966421803839  0.
0.17665114176584162 -1.483424537439366  0.
0.20246713456094173 -1.4748865244224671  0.
0.22699332352239623 -1.4873365647846684  0.
0.08549419172471907 -1.5256992223195986  0.
0.05979106032796023 -1.5343020353826946  0.
0.0355500928068568 -1.5219910377386765  0.
0.026934302300933074 -1.4961149242207936  0.
0.038891141102819916 -1.4716785396252354  0.
0.06449925104284147 -1.463058002674718  0.
0.08873069119524829 -1.4753541866207283  0.
-0.05087285159960274 -1.515330860839776  0.
-0.07650517598352685 -1.5240123658140392  0.
-0.10066569825484382 -1.5118176612687964  0.
-0.10912103970382163 -1.486016564526318  0.
-0.09709469785753708 -1.461601272009512  0.
-0.07150685012193408 -1.4529026901081024  0.
-0.047379433418284794 -1.465111690140927  0.
-0.18727336975802705 -1.5065714533726589  0.
-0.21302528452069752 -1.5153387148756232  0.
-0.23727947797123278 -1.5032046057220594  0.
-0.24566003981849627 -1.4773432564365276  0.
-0.23342722675902386 -1.452927459766472  0.
-0.20770598376583144 -1.4441594507888746  0.
-0.18352838675531924 -1.4562985886473527  0.
-0.3259451653784161 -1.499110693902724  0.
-0.35193685422371446 -1.5079587614519256  0.
-0.37642407593779104 -1.495823055124844  0.
-0.3848281176298752 -1.4697891394028513  0.
-0.3723356472611354 -1.4453456740004043  0.
-0.3462924847068302 -1.4364979733892753  0.
-0.32190457712368314 -1.4486070757581246  0.
0.22770500046927766 -1.395063627772393  0.
0.2023212758912146 -1.4034357310828718  0.
0.1783381891555659 -1.3911837159622065  0.
0.16957566681625938 -1.3656721756118035  0.
0.18118228204321837 -1.3415792657289032  0.
0.20642872635032525 -1.3332373002885793  0.
0.23048646474256318 -1.3454214570675183  0.
0.09215098557369723 -1.3825436254797754  0.
0.06702789332462086 -1.3909782714493741  0.
0.04325196140631726 -1.3789511498170828  0.
0.03475873432609055 -1.3535937612046978  0.
0.04639197826934932 -1.3296620403612964  0.
0.07141866512835052 -1.3212082620758159  0.
0.09515746296498674 -1.333250257703911  0.
-0.04135096871376732 -1.3722860543036748  0.
-0.06645100759235058 -1.3808286874316655  0.
-0.09013338344119338 -1.3689151409417173  0.
-0.09845669355355409 -1.3436481296571394  0.
-0.08668730481306304 -1.3197593389717672  0.
-0.06166305805405131 -1.3111970192435611  0.
-0.038031003551408295 -1.3231155656906652  0.
-0.1749967035500463 -1.3641261530275115  0.
-0.20022510314056932 -1.3727544405596246  0.
-0.2239706286054628 -1.3609374324358139  0.
-0.2321754590747578 -1.3356398558042786  0.
-0.22018494201001954 -1.3117322429830558  0.
-0.19501036690261483 -1.3030720827294615  0.
-0.1713421810238891 -1.3148911239602339  0.
-0.31091986761405305 -1.3576464704915112  0.
-0.3364084552961968 -1.366419451445599  0.
-0.3604184536587324 -1.3545994683755727  0.
-0.3686035563434979 -1.3290789221563115  0.
-0.3563214935079164 -1.3051352711844475  0.
-0.33078708444138094 -1.296407621573226  0.
-0.30688980760982176 -1.3081708930204055  0.
0.22944965813152865 -1.2550138892252072  0.
0.20476856792858167 -1.2631925053279445  0.
0.18134589699074405 -1.2512330512534657  0.
0.1727026520300882 -1.226371610077243  0.
0.18388640702243753 -1.2028482796491398  0.
0.20845589842717974 -1.194740778378567  0.
0.23191016539746018 -1.2066394398350835  0.
0.09757873379725002 -1.2423332405550245  0.
0.07309158065169762 -1.2505578128055244  0.
0.04989984479606167 -1.2388346688224856  0.
0.041532039444496446 -1.2141613686852335  0.
0.05279293711401073 -1.1907666399258647  0.
0.07716071909415903 -1.1825173840621641  0.
0.10031920863373607 -1.1942497940323469  0.
-0.03240709265623099 -1.2322640142892578  0.
-0.05684369676921466 -1.2406197409827295  0.
-0.07993684394246085 -1.2290595414390149  0.
-0.08806525488110556 -1.2044608193891821  0.
-0.07663757455205857 -1.1811779926301458  0.
-0.05230557238474903 -1.172784670532835  0.
-0.029291164214817256 -1.1843571184754542  0.
-0.1625454578746994 -1.2247477025863693  0.
-0.18712908446017468 -1.233234271110676  0.
-0.21031736503003098 -1.2217901453161941  0.
-0.21829961628065725 -1.1971364889284783  0.
-0.2066037624262778 -1.1738110904771912  0.
-0.18207052704305826 -1.1652890126678102  0.
-0.15898293704349112 -1.1767435118984533  0.
-0.294987476397994 -1.2193563353621004  0.
-0.3198543448834824 -1.2279881637500216  0.
-0.3432456076380428 -1.216547004873781  0.
-0.3511925895710199 -1.1917024194870218  0.
-0.33917567100856755 -1.168388361708809  0.
-0.3143123926908906 -1.159776500366334  0.
-0.29099539213286807 -1.1711255387178032  0.
0.22911943213796807 -1.1186949089819225  0.
0.20524908822504886 -1.1266136528967599  0.
0.18251640713073528 -1.1150446921057005  0.
0.17404368827164016 -1.0909462555192022  0.
0.18477247157861934 -1.068180747961243  0.
0.20847705827951069 -1.0602778065134386  0.
0.23123337407664402 -1.0718265455925629  0.
0.1015454095363962 -1.1058076383360824  0.
0.07788703247406481 -1.113805956014187  0.
0.055430658932977245 -1.1024725582210966  0.
0.04725775634492405 -1.0786085998999027  0.
0.058053570998462097 -1.0559819959702246  0.
0.08157089096529567 -1.0479638875687542  0.
0.10400073370207809 -1.0592828762678104  0.
-0.02412390510166714 -1.0960934968811549  0.
-0.04778160044198211 -1.1042294667128592  0.
-0.07018334787268195 -1.0930798552416414  0.
-0.07806887514622075 -1.0692522732166385  0.
-0.06706578087800234 -1.0466876856799818  0.
-0.0435322439255186 -1.0385100931114  0.
-0.021227031887556296 -1.0496731691148387  0.
-0.15006704530828052 -1.089231768004269  0.
-0.173843393667382 -1.0975302673655003  0.
-0.1962909675105081 -1.0865173314188032  0.
-0.2040284022969037 -1.0626869647029396  0.
-0.19270961384145235 -1.0401121887518323  0.
-0.16899587907428906 -1.0318010010198049  0.
-0.14666489290938672 -1.0428137795684467  0.
-0.2783582747511921 -1.0850550904917673  0.
-0.3023989500347976 -1.0934784957456498  0.
-0.32505355034208355 -1.082551426353429  0.
-0.33271278597400394 -1.0585202961685987  0.
-0.3210548453804252 -1.0359558013587766  0.
-0.2969904598956056 -1.0275431790295901  0.
-0.2744912221921842 -1.0384449346692293  0.
0.226586191413931 -0.9865112892793186  0.
0.2037051526737616 -0.9941064410801067  0.
0.18180399891680663 -0.9829779309357877  0.
0.1734956343447207 -0.959848355481509  0.
0.18364561884639566 -0.9378735532790857  0.
0.2064136698324683 -0.9303082414599191  0.
0.2283643665101239 -0.9414305210752809  0.
0.10404500513940798 -0.9737272640326026  0.
0.0813447540926585 -0.9814274581262811  0.
0.05973618809593699 -0.970559059272151  0.
0.05178227738490073 -0.9476434127907594  0.
0.06205478781529308 -0.9258589150942544  0.
0.0846132886113063 -0.9181133404457767  0.
0.10615979203580224 -0.929001685734169  0.
-0.016643981982153902 -0.9643176296395748  0.
-0.03933970221118549 -0.972190086003276  0.
-0.060875289059030335 -0.9615367649318974  0.
-0.06851774849141234 -0.9386952052396035  0.
-0.05799329538138904 -0.9169880392646862  0.
-0.03542659900954559 -0.9090706832241336  0.
-0.01398498494696384 -0.9197424520334878  0.
-0.13762988925919192 -0.9582614138568594  0.
-0.16046637037324663 -0.9663175611042539  0.
-0.18206140815823446 -0.9558310052623172  0.
-0.18947226911691567 -0.9329590065195127  0.
-0.17861133010985603 -0.911254291458537  0.
-0.15586619876354924 -0.9031310522230088  0.
-0.13438838440614542 -0.913649707216785  0.
-0.26097977353796376 -0.9552093628599898  0.
-0.2841186505260646 -0.9634552793356179  0.
-0.3059395862810224 -0.9530484706159769  0.
-0.31326265715585455 -0.929932522026414  0.
-0.30202457507962 -0.9082269259658038  0.
-0.27884878037746574 -0.8999701924142574  0.
-0.25716296185909004 -0.9103363050807681  0.
0.22180117447679826 -0.859757287388527  0.
0.1999409126585931 -0.8670295295894009  0.
0.17901848782295185 -0.8563925953944743  0.
0.17094281446780304 -0.8343023021195634  0.
0.18050243510290187 -0.8133425188694541  0.
0.20216763257639675 -0.8061192434508121  0.
0.22311943552072774 -0.816685749476391  0.
0.10504629748490889 -0.846827444822193  0.
0.08337944693196166 -0.8542197078286691  0.
0.06269198153809001 -0.8438520787224794  0.
0.05500085365160937 -0.8219753339264501  0.
0.06472162562389805 -0.8011435786581071  0.
0.08620741075113579 -0.7937321831623027  0.
0.10683171557961904 -0.8040646318929783  0.
-0.009965026773959959 -0.837813949874677  0.
-0.03160714007867718 -0.8453892121840744  0.
-0.052195205952042543 -0.8352720434964948  0.
-0.059528663410749395 -0.8134919488929669  0.
-0.049559194408664096 -0.7927003324863767  0.
-0.028040897124450893 -0.7850840228715794  0.
-0.007558114390034742 -0.7952212185295713  0.
-0.12523489994213335 -0.832632571972912  0.
-0.14705326298321628 -0.8404216718614103  0.
-0.167719965422271 -0.8304873801881818  0.
-0.17478631506542314 -0.8086539671000165  0.
-0.16442967725419386 -0.787862301522843  0.
-0.1427100812078095 -0.780061794491779  0.
-0.12219656938416694 -0.7900038305854402  0.
-0.242975017473802 -0.8310366293941627  0.
-0.2650772816363145 -0.8390278367876864  0.
-0.2859547465847683 -0.829177938559294  0.
-0.29288212156726434 -0.8071154957077182  0.
-0.282103502454082 -0.7864141181766788  0.
-0.2600185596015293 -0.7784288396666303  0.
-0.239308380187295 -0.7881960165237116  0.
0.21472527604866282 -0.7385270770709219  0.
0.19412179994227247 -0.7454168063788571  0.
0.1743569290145399 -0.7352956540717347  0.
0.16653654120551786 -0.7144955853485195  0.
0.17538255884173795 -0.6946344457538058  0.
0.19577693437550206 -0.6878374770532213  0.
0.21565477874606623 -0.6977900953781715  0.
0.10434705787957575 -0.7257878026661779  0.
0.08394910308036554 -0.7328013025326789  0.
0.06435231490863595 -0.7230572071669958  0.
0.0569926728762531 -0.7023842155368095  0.
0.06605263288499802 -0.6826891656213935  0.
0.08627520268287707 -0.6756400290077313  0.
0.10577724521729318 -0.6853987034244758  0.
-0.004175065427833246 -0.7172320744672149  0.
-0.024625917030337268 -0.7244678319629596  0.
-0.04412556096178107 -0.7149550671330966  0.
-0.051128371621605204 -0.6943682887610457  0.
-0.04173778537723109 -0.6747198383403773  0.
-0.021448947798857584 -0.6674469968206506  0.
-0.002072653395296096 -0.6769678928139807  0.
-0.11308393281288405 -0.7129510876925056  0.
-0.13370203048498605 -0.720390388933008  0.
-0.15322458279913242 -0.7111062557881715  0.
-0.15992408424147186 -0.6905159917158574  0.
-0.15013253612751584 -0.6708628507151714  0.
-0.12964524390456197 -0.6633630442391919  0.
-0.11027294321324464 -0.6726645129007768  0.
-0.22453491622281663 -0.7125039260756647  0.
-0.24539095375136194 -0.7202154381816348  0.
-0.26512332845516756 -0.7110549390202733  0.
-0.2716761230320784 -0.6902132771144622  0.
-0.2614650843664555 -0.6706015789633442  0.
-0.24053153923366258 -0.6629752009876504  0.
-0.2209726899738858 -0.6720603811276401  0.
0.20521340848251401 -0.6240678694869611  0.
0.18596545366184045 -0.6305706174162383  0.
0.16730504279282246 -0.6210714168373198  0.
0.15982578375833056 -0.6015235198640599  0.
0.1679373934118804 -0.582822293610975  0.
0.18704372667345584 -0.5764761604905353  0.
0.2057253649192763 -0.5858311083433092  0.
0.10212350624098944 -0.6114193551455869  0.
0.08299561024502482 -0.6180057036050246  0.
0.06458404801581569 -0.608873526376149  0.
0.05755814187975054 -0.5895345377933046  0.
0.06593071505957697 -0.5709818932388696  0.
0.08484757684233432 -0.564353391497317  0.
0.1031805179695292 -0.5734900797428671  0.
0.0006509897869615083 -0.6032839666848617  0.
-0.01846718761065988 -0.6101181635351235  0.
-0.03675272327435857 -0.6012763669221599  0.
-0.04334494059678944 -0.5820214036615503  0.
-0.03461954522771603 -0.563596027110081  0.
-0.01569324381409774 -0.5567075985728556  0.
0.0024403103951049494 -0.5655669129530149  0.
-0.10112774811182933 -0.5999171177255952  0.
-0.12044809010664062 -0.6070091179709581  0.
-0.13882033105276687 -0.5984152294576341  0.
-0.14508674176240016 -0.5791064112698029  0.
-0.1359032538245058 -0.560633481504608  0.
-0.11669453764691702 -0.5534857320794302  0.
-0.09851007668072498 -0.562107619647197  0.
-0.20537684342813992 -0.600918075555674  0.
-0.2250078102427346 -0.6083075596411069  0.
-0.2435408458706616 -0.5997919684672286  0.
-0.24963656992664657 -0.5802391348945276  0.
-0.2399726357118183 -0.5618508011342224  0.
-0.2203702036017853 -0.554541313010955  0.
-0.20195994250992416 -0.562886797213515  0.
0.19337276233649447 -0.5170430880281356  0.
0.17557165795730695 -0.5230180628279258  0.
0.1582715586959659 -0.5142362159230734  0.
0.15120350605198665 -0.4961473916348928  0.
0.1585560947768993 -0.47890841563666525  0.
0.1760690743498388 -0.4729930050641609  0.
0.19339469462017062 -0.48163684168307985  0.
0.09806433627316442 -0.5043330490973481  0.
0.08043555826863455 -0.5104798488330498  0.
0.06339886978700635 -0.5020469235435644  0.
0.056795703720644825 -0.48418935685783054  0.
0.06438763644463802 -0.46704391035626436  0.
0.0817842182945386 -0.4608814831458517  0.
0.09874868865600789 -0.469287178194242  0.
0.00451571708352408 -0.49678331977089657  0.
-0.013163206757818019 -0.5031722377525694  0.
-0.030134029678259143 -0.4950493742207174  0.
-0.036267755236388304 -0.4772244489411802  0.
-0.02827487844029896 -0.46014371062534065  0.
-0.01080139758266749 -0.4536948908403575  0.
0.006003316569629076 -0.4618412249972961  0.
-0.0894453142702261 -0.4942671509000687  0.
-0.10727998276932305 -0.5009457009514998  0.
-0.12426427580781184 -0.4930791498449956  0.
-0.13006894088273638 -0.47526916141744713  0.
-0.12156777141412158 -0.4581896929648767  0.
-0.10386424745962655 -0.4514871868966988  0.
-0.08707784873962723 -0.4593517877657317  0.
-0.18591382088218114 -0.4968158214554294  0.
-0.20404327954288295 -0.5037546595943659  0.
-0.2212518454262761 -0.4960765690291229  0.
-0.22676674717922893 -0.47797854413119717  0.
-0.2177759794342623 -0.46099987908747103  0.
-0.19967949109875485 -0.454067361266769  0.
-0.18273320776286942 -0.46169470838589527  0.
0.17903426254839666 -0.417774067661424  0.
0.1628770495067821 -0.42319711934449855  0.
0.14700653058173904 -0.41513190853171344  0.
0.14032105153085023 -0.39867609907302876  0.
0.1467958122521247 -0.38279163475109557  0.
0.16277309069826765 -0.37744880896800115  0.
0.17868097117982806 -0.3854492335293857  0.
0.0923096621351506 -0.4053995837281325  0.
0.07628695628563271 -0.41098968345484793  0.
0.06073160983476372 -0.40332415981139574  0.
0.05457573251898726 -0.38707451825534156  0.
0.061348207616542916 -0.3714016629996768  0.
0.07713823316196496 -0.36574771729281913  0.
0.0925847948024479 -0.37344217693500015  0.
0.007331298581422057 -0.39829269729879957  0.
-0.008726150168814903 -0.4041789931176779  0.
-0.024194412806847268 -0.39684883063175885  0.
-0.029842499852904294 -0.38066965641067524  0.
-0.022626935484972487 -0.3650795039625829  0.
-0.0067842181747512975 -0.35913441114355976  0.
0.008521692329120669 -0.3664929933287312  0.
-0.07803114218838639 -0.3967148880140102  0.
-0.0942614722558819 -0.4029070778851898  0.
-0.1097714934250178 -0.3958826689176614  0.
-0.11499442700786353 -0.3796726299441334  0.
-0.10725546174813447 -0.3640929408372299  0.
-0.09118229711423328 -0.3577995336074765  0.
-0.07587263907069865 -0.3648848643290195  0.
-0.16587107642635887 -0.40039339519399686  0.
-0.1824371814804827 -0.4069035365802698  0.
-0.19810671173279454 -0.4000827592947451  0.
-0.20312701492444485 -0.38356380902220116  0.
-0.19487567654508756 -0.368030495831056  0.
-0.17825312492182657 -0.36149400472324206  0.
-0.1627695603538856 -0.36829848637754065  0.
0.16229519194809422 -0.3278957187696083  0.
0.14779449368558684 -0.33279334398081367  0.
0.13346935786602482 -0.32550987188706326  0.
0.12725819178068093 -0.31066747558598157  0.
0.1328883824502229 -0.29642406276328653  0.
0.14715323253376025 -0.2915957954197034  0.
0.161516179594484 -0.29883006163586595  0.
0.08487737252510288 -0.3153748206188293  0.
0.07054121036463651 -0.32042239295924824  0.
0.05653032442141175 -0.31353534052136317  0.
0.050889975137134474 -0.29897413383688337  0.
0.056833184597825395 -0.2848997870007081  0.
0.07090209725907068 -0.27984378022558964  0.
0.08479584629355175 -0.2866775334881399  0.
0.009172846007801893 -0.30871764585841505  0.
-0.005175027956114941 -0.31405194561765487  0.
-0.01905543062939454 -0.3075417234427653  0.
-0.024141250495882855 -0.2930779644991442  0.
-0.01777170764285736 -0.27904498063849636  0.
-0.0036298633497068794 -0.27365460661458224  0.
0.010074778638080716 -0.2801957258582279  0.
-0.06680527978228042 -0.30808392808583335  0.
-0.08137718783670554 -0.31376526848894404  0.
-0.09531478687367015 -0.3075600651123052  0.
-0.09994276608791229 -0.29303198043955797  0.
-0.09300156801981461 -0.2789812045939496  0.
-0.078598700800736 -0.2732837787069355  0.
-0.06489259891360054 -0.2795056913599134  0.
-0.1453061994486796 -0.31343435792798346  0.
-0.16018958596446328 -0.3194553843126226  0.
-0.17434224671474374 -0.3134510392416146  0.
-0.17867268082858634 -0.29860708842577915  0.
-0.1711237658035933 -0.2847225622026123  0.
-0.15629696528987272 -0.27871671576169954  0.
-0.14241676286692442 -0.2846296209688567  0.
0.1431788060634345 -0.24741375380931657  0.
0.1305469665442408 -0.2516285677124514  0.
0.11808960937765976 -0.2450818781941997  0.
0.11240408900314647 -0.2322563684408521  0.
0.11703385999549236 -0.21980874807422915  0.
0.12933514515003555 -0.21575491255243054  0.
0.14193525377116217 -0.22200037709006576  0.
0.07561903987261646 -0.2349941730699019  0.
0.06321679113694777 -0.23937669674347603  0.
0.05095273217475038 -0.23338968558398285  0.
0.04591408559151622 -0.2206977572557207  0.
0.05091836677023621 -0.20842489680778115  0.
0.06306223641965365 -0.20399591943663564  0.
0.0751759294431714 -0.21000603081744576  0.
0.010032177987115263 -0.22872547285075726  0.
-0.0024846230696265355 -0.23345259087863482  0.
-0.01463479447383748 -0.22781241933041957  0.
-0.019126909279897984 -0.21518475829251243  0.
-0.013597971210280113 -0.2029451174684279  0.
-0.001332767494515248 -0.19817043455735658  0.
0.010620899263823133 -0.20382982612823972  0.
-0.05593791989103433 -0.22895100214554076  0.
-0.06865584128184515 -0.23400615076615028  0.
-0.08078045273170752 -0.22872273926478257  0.
-0.08478083916474091 -0.21609694403321983  0.
-0.07866997679592151 -0.20385279815024632  0.
-0.06615890452922546 -0.19870326093541948  0.
-0.05424984702225456 -0.20400856355982183  0.
-0.12449754199565333 -0.2352991547054125  0.
-0.13742716916039796 -0.24077149530154401  0.
-0.14971239574978554 -0.235737064172773  0.
-0.1534231004548707 -0.22280353710991102  0.
-0.14672970461858348 -0.2106692730647339  0.
-0.13371842054176253 -0.2053172534048654  0.
-0.12168347590393494 -0.21024542294852258  0.
0.12159434050918032 -0.17730080053157907  0.
0.1109702160973616 -0.18087001853391496  0.
0.10020309318247168 -0.1752122201876155  0.
0.09512472996293081 -0.16424335361794998  0.
0.09876554207023187 -0.15354849622874536  0.
0.10921944456129619 -0.15019401975445595  0.
0.12002338254247864 -0.15566231701029903  0.
0.0648754073604816 -0.16495938543205196  0.
0.0543509520690272 -0.16863617763513075  0.
0.04390157679747445 -0.16350044597083285  0.
0.039476810061465015 -0.15276650422107635  0.
0.04354582094290191 -0.14227498848058612  0.
0.05376510577626796 -0.1385499354622149  0.
0.06409224009877879 -0.14368543980004592  0.
0.009906794941477988 -0.15898584760747023  0.
-0.0006313049462345053 -0.1630267039439865  0.
-0.010907609109694997 -0.15830595001172254  0.
-0.014702543940510501 -0.14764826231527695  0.
-0.010094103528110028 -0.13728219217792992  0.
0.00016063223436465766 -0.13317974360896867  0.
0.01021231595442553 -0.13792979162658098  0.
-0.04523258045873228 -0.16006512256236682  0.
-0.05600437215824916 -0.16447822286359795  0.
-0.06636180208674543 -0.16014310464909695  0.
-0.06963958364010411 -0.1494222955706208  0.
-0.06438286964299456 -0.13898245969798986  0.
-0.05377991759856888 -0.1344739598786841  0.
-0.04371349952604163 -0.13886482820697377  0.
-0.10282600745591336 -0.16785263362715291  0.
-0.11394731991992887 -0.17272735580293383  0.
-0.12437320379281398 -0.16855580481952015  0.
-0.1273236409185191 -0.1575220171068338  0.
-0.1214240722501406 -0.1472597654913731  0.
-0.11041353805882548 -0.14245840393367426  0.
-0.10013231557344057 -0.14640226651386026  0.
0.097800040075671 -0.11870826103406791  0.
0.08924088658704277 -0.12141324028840801  0.
0.08050365553067892 -0.11674270545519418  0.
0.07614744448132625 -0.10786897148739817  0.