<?xml version="1.0"?>
<VTKFile type="UnstructuredGrid" version="0.1" byte_order="LittleEndian" compressor="vtkZLibDataCompressor">
<UnstructuredGrid>
<Piece NumberOfPoints="3024" NumberOfCells="5796">
<PointData>
<DataArray type="Float64" Name="displacement" NumberOfComponents="3" format="ascii" >
0.21593222511999938 -3.854202855237129  0.
-0.06317407051457317 -3.8123770151873817  0.
-0.3357384831560052 -3.773199828819926  0.
-0.6075540880077183 -3.73577859975212  0.
-0.8844182764000017 -3.697750774213043  0.
0.25300142837386347 -3.566689994530886  0.
-0.023528362222192633 -3.525429105401516  0.
-0.29487208317859526 -3.4868892477587052  0.
-0.5657382547826942 -3.449461706891804  0.
-0.8414949410917688 -3.4117899239974885  0.
0.2867349654966733 -3.2817117994255374  0.
0.013748300660575544 -3.2400771863194238  0.
-0.25493644350448885 -3.2016841874648425  0.
-0.5236486822949026 -3.165272940983526  0.
-0.7967814108183777 -3.12967821716065  0.
0.3165013466859683 -2.9995591913692103  0.
0.048178875131110584 -2.9576868825826996  0.
-0.21642446886213684 -2.919815941684151  0.
-0.4812754891145022 -2.8848814894840693  0.
-0.7506754401637509 -2.8517538539261915  0.
0.3419901957881383 -2.7211832139716825  0.
0.07931647205586431 -2.6796455554605343  0.
-0.17967930989101522 -2.6426725486369076  0.
-0.43932169580766717 -2.609531637898717  0.
-0.7035960093277225 -2.5789984239319685  0.
0.3626141498921678 -2.448056952561009  0.
0.10712767559156032 -2.4070920162539067  0.
-0.1450982024265502 -2.3713570690342896  0.
-0.3979860143236946 -2.3403508255049164  0.
-0.655756370717591 -2.312717147221445  0.
0.3780285091444883 -2.181869242201841  0.
0.13097175612712314 -2.141611975062392  0.
-0.11295445367276943 -2.1074550374742924  0.
-0.3578143903507028 -2.078770838078615  0.
-0.6078001134878949 -2.054506197526769  0.
0.3880188653689234 -1.9234915324635233  0.
0.1505890945849505 -1.884585038882217  0.
-0.08364181514739658 -1.8522279546200144  0.
-0.31900270552776727 -1.8261374747593722  0.
-0.5595350846790452 -1.8051940520082124  0.
0.3920296492556106 -1.6753228205578135  0.
0.1658969249284272 -1.6374325765279436  0.
-0.05734393406022256 -1.6070811932693043  0.
-0.28169779900892566 -1.5838821980229822  0.
-0.5116178419585188 -1.5669988798582601  0.
0.3901586212973524 -1.437867830592008  0.
0.17636120734312238 -1.4017105824692615  0.
-0.03430112479104747 -1.373476038307942  0.
-0.2464684990303528 -1.353288999929223  0.
-0.46426498896781093 -1.3400846040411694  0.
0.3819116685492126 -1.2132978848044134  0.
0.1822062341680401 -1.1787391224783483  0.
-0.01486266015916111 -1.1527091250806087  0.
-0.21316114504910594 -1.1356745578704475  0.
-0.41714224898262703 -1.1265592494875132  0.
0.36722064193929344 -1.0032205775366512  0.
0.1827521011825308 -0.9700718861204631  0.
0.0010120521559774263 -0.9464190428725234  0.
-0.18214951426900558 -0.9324951684172279  0.
-0.37116259585981914 -0.927818517180364  0.
0.346084996198534 -0.8083933894363337  0.
0.1780937348960003 -0.7772653732443386  0.
0.013111278271867942 -0.7559494383939972  0.
-0.1533042980369037 -0.7451491007305786  0.
-0.32543194647724727 -0.7441845636652714  0.
0.31831270346906476 -0.6319009809851831  0.
0.16841504697873771 -0.601928776816991  0.
0.0215338859065992 -0.5828289489232096  0.
-0.12653573137968993 -0.5751504226470958  0.
-0.2805516057525228 -0.5788422845384543  0.
0.284133541489082 -0.47418153329342116  0.
0.1534654224124609 -0.4458543852552437  0.
0.02634443460935647 -0.42861980853440906  0.
-0.10219994275458752 -0.42384459238390115  0.
-0.2365992184894573 -0.43101595769834755  0.
0.2436041667424465 -0.33714921324768804  0.
0.13395652566638955 -0.3100612814023768  0.
0.027480661129864897 -0.2945970004033039  0.
-0.07969298907717602 -0.2925977360674271  0.
-0.19253201402237988 -0.30361851110374144  0.
0.19694011449597076 -0.22324994359884118  0.
0.10930242552849566 -0.19655571566684021  0.
0.025430078674406813 -0.1825249457146708  0.
-0.05906836718916444 -0.18277332189551715  0.
-0.14932860794499633 -0.19754899728652214  0.
0.14475684103200695 -0.1327004097716625  0.
0.07999476560613691 -0.10682334037680903  0.
0.020252318018481548 -0.09371973254324985  0.
-0.03952462612030875 -0.09600463420724756  0.
-0.1052390492089469 -0.11348736665305277  0.
0.08822752400036783 -0.06808976779483199  0.
0.046741192845253 -0.041861315898213174  0.
0.012439494258604387 -0.030277573423928675  0.
-0.020742344122418682 -0.03387771101073456  0.
-0.05994052318000579 -0.054512628806795624  0.
0.028793443837576715 -0.021286359145469246  0.
0.013159316731610011 -0.00489422486877344  0.
0.003193947961925054 0.0010145061979184027  0.
-0.005817261824459499 -0.0011388794011040148  0.
-0.014299799971613347 -0.013686434247916938  0.
0.0 0.0  0.
0.0 0.0  0.
-1.1234420542078873 -3.813275150068998  0.
0.2675132221686072 -4.0137795298725125  0.
0.18739744613898712 -3.902384627589842  0.
0.13320940546334512 -3.916069648688744  0.
0.08544211517097446 -3.8872359405266614  0.
0.07182543145896146 -3.8330110344593282  0.
0.10020990097406725 -3.784923882838609  0.
0.15416194778807776 -3.7712083061380235  0.
0.2021055618519969 -3.7999627599161068  0.
-0.09090226950987053 -3.8597018267107446  0.
-0.14379503578469446 -3.8733133167233413  0.
-0.19059066427817636 -3.845235810834109  0.
-0.20403343840367488 -3.7921341086484945  0.
-0.17633758281411413 -3.7447779783229733  0.
-0.12352937000493025 -3.731076537876927  0.
-0.07665520853608268 -3.7591615788006814  0.
-0.36319339118905597 -3.8201855133004705  0.
-0.415642543890902 -3.8338478231416295  0.
-0.4621895915513315 -3.8061248808688184  0.
-0.47550809340210587 -3.753409863635154  0.
-0.4480017622771533 -3.7063946356533126  0.
-0.3955921743181277 -3.6926268415944405  0.
-0.34908657249752245 -3.7204441485019175  0.
-0.6353334368201589 -3.783052861717053  0.
-0.688218955400033 -3.7968635999888227  0.
-0.7351736918832079 -3.7689541928883052  0.
-0.7485205051069272 -3.715773182548829  0.
-0.7206634827565439 -3.6684390030330642  0.
-0.6677743560080983 -3.6546413841442833  0.
-0.6208897289750971 -3.6826242721789866  0.
-0.9129307484518064 -3.7458179119028143  0.
-0.9669435320604968 -3.759740997956437  0.
-1.0148882184228765 -3.7311034461084724  0.
-1.0284955548244308 -3.676842704076177  0.
-0.9998069789223937 -3.6288852583859947  0.
-0.9457067324544526 -3.615110761407236  0.
-0.8979141856720442 -3.643667438075881  0.
0.22516568101411036 -3.614173706610382  0.
0.17190064963787052 -3.627685463635047  0.
0.12467550757876869 -3.5994091302899967  0.
0.1110098138068532 -3.54598939849286  0.
0.1387986068282301 -3.4985804440250887  0.
0.1918441091139801 -3.4850074396800275  0.
0.23914311683553727 -3.513293387901604  0.
-0.05109657171361766 -3.5726245200844544  0.
-0.10375350585487739 -3.5862744961060034  0.
-0.15043438437044718 -3.558313825810649  0.
-0.16385396381514827 -3.505357578502455  0.
-0.13632882445607064 -3.458191611144418  0.
-0.08377113421836017 -3.4444869153371935  0.
-0.03703693690309699 -3.4724447726186525  0.
-0.3222912975919739 -3.5340284943224263  0.
-0.3747373214350951 -3.547758080016342  0.
-0.4212558776574743 -3.519958244834637  0.
-0.4344888258384274 -3.467142519357552  0.
-0.40702328119677134 -3.4201106386873437  0.
-0.35464817724249276 -3.4063430766490055  0.
-0.3081657927209482 -3.434154071729554  0.
-0.5934022161820296 -3.4966207036470833  0.
-0.64608160434796 -3.5103994437929185  0.
-0.6928257466499127 -3.482561120249968  0.
-0.7061399088065107 -3.429600255367156  0.
-0.6783771172198025 -3.3824753047503773  0.
-0.6256846306040704 -3.3687149162580727  0.
-0.5790164038060668 -3.3965657344776643  0.
-0.869629673207933 -3.4592043442366927  0.
-0.9229488352266095 -3.472956585949519  0.
-0.9702739801854459 -3.4449133872391458  0.
-0.9836599453219123 -3.3915500990159244  0.
-0.9553805147230048 -3.3442866342935575  0.
-0.902017421858337 -3.330528563959187  0.
-0.8548655149279769 -3.3585179160229015  0.
0.2594288884710488 -3.3287257218598447  0.
0.20689037423556525 -3.342121097392619  0.
0.16017864424370157 -3.3141375608333528  0.
0.14643997641867887 -3.261339211137252  0.
0.17367603944493404 -3.2143099943407694  0.
0.22605863386620662 -3.200927972249028  0.
0.27284609637302387 -3.2289499322281663  0.
-0.013339618331259687 -3.2868190128690244  0.
-0.06538980968157145 -3.300367326604078  0.
-0.1116391660431454 -3.272714496046728  0.
-0.12506204187749315 -3.2203181338622175  0.
-0.0979667620423212 -3.173577611946572  0.
-0.04602249696618228 -3.159979280393909  0.
0.00020315070110699004 -3.1876584943401642  0.
-0.28204569793650375 -3.248340956955366  0.
-0.3339808209072123 -3.262000243176061  0.
-0.3801043330085616 -3.2345329894164996  0.
-0.393327532398125 -3.1822854116090262  0.
-0.36614613397748824 -3.135670922551131  0.
-0.3142909311396504 -3.121960076462372  0.
-0.268211147813868 -3.1494445446916695  0.
-0.5510223120746821 -3.211980340657126  0.
-0.6031868079199892 -3.2257271845374933  0.
-0.6494763260558922 -3.198281107618442  0.
-0.662629116536541 -3.1459416110981335  0.
-0.6351339037008658 -3.099313966921239  0.
-0.5830166948519163 -3.0855067244311334  0.
-0.5367997567632715 -3.1129611157057187  0.
-0.8246666305700302 -3.176576539092975  0.
-0.8773994821429546 -3.190354575363009  0.
-0.9242127375663357 -3.162789960027462  0.
-0.9374148754261836 -3.110057266213865  0.
-0.9094249376051191 -3.0633238666971727  0.
-0.8565899171165366 -3.049533598079461  0.
-0.8099113276480716 -3.077037482403302  0.
0.28985328243523717 -3.0460071858606814  0.
0.23814218430436468 -3.0592438785981773  0.
0.1921040615987333 -3.0316679407953493  0.
0.17832456501477809 -2.9796351888984685  0.
0.20494015332671287 -2.9332539689808317  0.
0.25641985186111516 -2.9200233086793634  0.
0.30258477621147056 -2.94758892227937  0.
0.02169436830854191 -3.0038566908224684  0.
-0.029590959158066688 -3.017242510569575  0.
-0.07524450433985568 -2.9900128530337375  0.
-0.08864641120271609 -2.9383765438374074  0.
-0.06208579040102589 -2.892248409301612  0.
-0.010979870153414157 -2.8788050320485157  0.
0.03466132588213367 -2.906002464556925  0.
-0.24301869864508419 -2.9658678002732772  0.
-0.2941956348776929 -2.9794236031122754  0.
-0.33972896664334673 -2.952435069489755  0.
-0.3528416218522375 -2.900978049159649  0.
-0.32615070841732396 -2.8549007164135496  0.
-0.27505718863090894 -2.841301185935474  0.
-0.22958897939857797 -2.868309120607425  0.
-0.5082277183699171 -2.930963849182145  0.
-0.5596632799309474 -2.944655056091674  0.
-0.6053992261244534 -2.9177550746683503  0.
-0.6183526157876651 -2.866194985741778  0.
-0.5912574164790568 -2.8201664103538064  0.
-0.539882176240051 -2.8064654178206525  0.
-0.4942944366329201 -2.833355843032712  0.
-0.7781786912435398 -2.897967303582239  0.
-0.8301044166981487 -2.911752740033669  0.
-0.8762951415188872 -2.884784347640842  0.
-0.8892478030656814 -2.8328853441334916  0.
-0.8616377262627565 -2.786863349923128  0.
-0.809614552343523 -2.7730912615706127  0.
-0.763608144987848 -2.799982073457228  0.
0.3161476953823424 -2.766858426758465  0.
0.265546513930361 -2.7798836160613067  0.
0.22038272651671623 -2.7528382169343297  0.
0.20660469017490932 -2.7018771854676094  0.
0.23239717452370054 -2.6563276029955727  0.
0.282726333141422 -2.643329460751826  0.
0.32805710524649373 -2.670257510402598  0.
0.05358571378597513 -2.7249268945476537  0.
0.003465376661696991 -2.7381376719674853  0.
-0.04136499699136512 -2.711576268824184  0.
-0.05466544819946393 -2.660972709710262  0.
-0.028862910935969623 -2.6157352252631076  0.
0.021075881883545602 -2.6024634879208546  0.
0.06583229192788925 -2.629045795944356  0.
-0.2056183773771889 -2.687850995377087  0.
-0.2557323131574032 -2.7012763785565497  0.
-0.30041737166829413 -2.674952063549487  0.
-0.31341496442470046 -2.6245561787586538  0.
-0.2873578514585916 -2.5794269805981256  0.
-0.2373872116388329 -2.5659461771246788  0.
-0.1927984169897521 -2.5922693363814866  0.
-0.46565884855269113 -2.6547777628924267  0.
-0.5160516737743335 -2.6683376353993458  0.
-0.5608934868197372 -2.6421763965748952  0.
-0.5736543848446418 -2.5917417788427684  0.
-0.547158018724319 -2.5466241648961914  0.
-0.49686176840567453 -2.532991452539485  0.
-0.4521686951879104 -2.559136960930489  0.
-0.730558171149674 -2.6243666674359503  0.
-0.7815013195092511 -2.638137277217784  0.
-0.8268594717796409 -2.6118992773633027  0.
-0.8395257044467315 -2.5610403429616944  0.
-0.8124464875762348 -2.515918283874719  0.
-0.7614291306924658 -2.502241926400346  0.
-0.7162748821848718 -2.5283449248224104  0.
0.3377212710631641 -2.4927099771027854  0.
0.2885247507258383 -2.505541928674206  0.
0.24436516488833843 -2.479202998353236  0.
0.23065083023859456 -2.429528825897845  0.
0.25548042082875627 -2.38497193860441  0.
0.30444501466833 -2.372256547998866  0.
0.3486859409410613 -2.39848091129273  0.
0.08230124096263551 -2.4513758582356515  0.
0.03345818361881692 -2.4643394868308226  0.
-0.01032488184468621 -2.438507967228721  0.
-0.023559484625864487 -2.3892543093527787  0.
0.0013873736622374015 -2.3449576110133825  0.
0.05000479975923329 -2.3319164066189435  0.
0.09372555429578168 -2.3577568213539926  0.
-0.1701658056716435 -2.4154955479049454  0.
-0.2189526993390799 -2.4287258596403  0.
-0.26259117100322643 -2.403227759247402  0.
-0.2753852233257307 -2.3541673794626146  0.
-0.2501415839504668 -2.310120904758005  0.
-0.20154965758586335 -2.2967922252368735  0.
-0.1580634206705696 -2.322294947034313  0.
-0.4235768448622536 -2.384497292522315  0.
-0.47268923032445165 -2.3979458384697754  0.
-0.5165486204954751 -2.3726416404216066  0.
-0.5290449840128656 -2.32350408964416  0.
-0.5032656315009604 -2.279433773366483  0.
-0.4542448878763147 -2.2659030420886426  0.
-0.4105798636574291 -2.291201537402902  0.
-0.6820232452824986 -2.3570444388183427  0.
-0.7317353246296553 -2.370703810770744  0.
-0.7760018399114392 -2.3453514580201786  0.
-0.7883815378820004 -2.295848098547721  0.
-0.7619694935987764 -2.2518639908391265  0.
-0.7122712852793576 -2.2382382302246033  0.
-0.6681277280406682 -2.2633997628629663  0.
0.3542922627332482 -2.225292361022637  0.
0.30672350327398035 -2.237822317752833  0.
0.26379407375425085 -2.2124080767011236  0.
0.2502196578809265 -2.164248627508158  0.
0.2739814438394305 -2.1210459343905606  0.
0.3212287810076671 -2.108509988033488  0.
0.3642141975846556 -2.133888385050683  0.
0.10720155139458072 -2.184580247671104  0.
0.06001519206742327 -2.197310964675434  0.
0.017557047986851412 -2.1724116735502665  0.
0.004497303039173381 -2.1247689367346045  0.
0.028351790610544898 -2.0818427350759046  0.
0.07526852612000529 -2.06904276108408  0.
0.11768419043232806 -2.0939078642215927  0.
-0.1370033997729373 -2.1503824204460527  0.
-0.1842322585864368 -2.163378674474783  0.
-0.22663810309789856 -2.138840632211831  0.
-0.23915535717128636 -2.0913251421102603  0.
-0.2149107233940598 -2.048556724063868  0.
-0.1679141367450352 -2.0354527632683106  0.
-0.1256958248579651 -2.0599963776810934  0.
-0.38244872196331914 -2.1216166613540817  0.
-0.4299591502052404 -2.13490059802794  0.
-0.472497690088298 -2.110609731594014  0.
-0.48472476460001235 -2.0631142050415954  0.
-0.4598589323432665 -2.020392428433268  0.
-0.41247050520878403 -2.007068295121958  0.
-0.37015588992955517 -2.0313339713820664  0.
-0.6331586204117392 -2.0975088427200563  0.
-0.6812265441236982 -2.1109755744525334  0.
-0.7242026206385901 -2.086792731181468  0.
-0.7362290017640414 -2.0389241513598875  0.
-0.7106895211488415 -1.9962902621000007  0.
-0.6625797550210807 -1.982848597253275  0.
-0.6199022955084939 -2.006944773807632  0.
0.3655138145605994 -1.9653999641606021  0.
0.3199407202356811 -1.9775384485722822  0.
0.2785131122789143 -1.9531769234953291  0.
0.26502196481740087 -1.906940665801672  0.
0.28747075424313095 -1.8651357172019305  0.
0.3328214376622455 -1.8530325045064808  0.
0.37435250998893327 -1.877390755420655  0.
0.12810324597472225 -1.9260411865073566  0.
0.08284277699832263 -1.938419503774197  0.
0.041912441347903874 -1.9146184721496469  0.
0.02904547973605033 -1.8688632853909235  0.
0.051683820403967545 -1.8274427175680859  0.
0.09668089289180766 -1.8149460106022297  0.
0.13749265959290288 -1.8387720465889485  0.
-0.10653678770340115 -1.8935389449669793  0.
-0.15184296744374431 -1.9062522403328266  0.
-0.19269385317197346 -1.8828746625590578  0.
-0.20497760837922918 -1.8373193327502146  0.
-0.18186558877442577 -1.7960938771854535  0.
-0.1368007020132697 -1.7832657691117437  0.
-0.09613293072151127 -1.8066601064140972  0.
-0.34255664400640823 -1.867440670052208  0.
-0.3881949548929399 -1.8804800107080994  0.
-0.42921337583820124 -1.85740187449165  0.
-0.44104016234250043 -1.8118283591901965  0.
-0.417264764107717 -1.7706734911724522  0.
-0.3717930222101989 -1.7574834469820397  0.
-0.3310088024721885 -1.7805965610817438  0.
-0.5839468675489731 -1.8466537417024462  0.
-0.630233075999058 -1.8599942043157514  0.
-0.6717262965446879 -1.8370125302399918  0.
-0.6833221054857315 -1.7909835356865496  0.
-0.6587939006237182 -1.7498999881484711  0.
-0.6124383024808064 -1.7365439440499502  0.
-0.5712003770004921 -1.7594154452707995  0.
0.37101077233032587 -1.7155876175690523  0.
0.32748687528120535 -1.7273343248318385  0.
0.2878366354563538 -1.7041492224470718  0.
0.27455560089103215 -1.6599827659741437  0.
0.2956255153231702 -1.6200160481341985  0.
0.33876357326636425 -1.6083256898316418  0.
0.3784927815006639 -1.6313777737037873  0.
0.14479159873894568 -1.6772150624465072  0.
0.10160167526962856 -1.6892307985398607  0.
0.0623371555145896 -1.6666053124652234  0.
0.04973853279919727 -1.6229221728458112  0.
0.0710872926018666 -1.5832247260746946  0.
0.1139312279157616 -1.571135474698185  0.
0.15308680551254755 -1.5936774149319592  0.
-0.07893925251404953 -1.6466806615221394  0.
-0.12213858614962 -1.6590556810456487  0.
-0.16127850966307822 -1.6369264305391626  0.
-0.17320873960715868 -1.5934917549984429  0.
-0.15138434458250302 -1.5539090917083276  0.
-0.10841895035883552 -1.5414292057583758  0.
-0.06948339235959004 -1.563575807299728  0.
-0.30405526401011124 -1.623489439610085  0.
-0.3476619996588871 -1.6362440490173285  0.
-0.3870125347504623 -1.61444354951624  0.
-0.39841200744082444 -1.5709490653852625  0.
-0.3758202609185318 -1.5314393101319461  0.
-0.3324065103071885 -1.5186398272140809  0.
-0.29335584839826356 -1.5404236884856846  0.
-0.5348728696928212 -1.606773541106693  0.
-0.5790966358182044 -1.6198639208406016  0.
-0.61889510247628 -1.5981757257680111  0.
-0.6299694540111601 -1.5542670185546916  0.
-0.6065536886195384 -1.5150046842296132  0.
-0.5623667761309 -1.5019193900834538  0.
-0.5228787307833331 -1.5234130639971908  0.
0.3707109782278149 -1.4760968480173202  0.
0.3297066937415251 -1.4873768078369285  0.
0.29218347207242773 -1.4654389763446465  0.
0.2791099474639863 -1.4238404826432767  0.
0.2985520944110637 -1.385852511117038  0.
0.3391386197583195 -1.3747196642539756  0.
0.3769226420878356 -1.396343809739161  0.
0.15675549844233902 -1.43940888081564  0.
0.11611049599030765 -1.4509626800626332  0.
0.07882283127511784 -1.429781670637458  0.
0.06660363284517572 -1.388506158194552  0.
0.086417492291746 -1.3508742856296743  0.
0.12673021805348583 -1.3392171834879856  0.
0.16383697349894494 -1.3604093007952944  0.
-0.054486621367452547 -1.411063178923131  0.
-0.09530024686296151 -1.4230361210128397  0.
-0.13246146177331386 -1.4023113040491757  0.
-0.14401307760641271 -1.361257968256418  0.
-0.12356396232362839 -1.3237670550336333  0.
-0.0830604461904256 -1.31169186268952  0.
-0.04613624400954282 -1.3324103273878185  0.
-0.26742500453666773 -1.390908636266455  0.
-0.30862913864452524 -1.4032470987728924  0.
-0.3459060074934191 -1.3829501650463358  0.
-0.35686548814696445 -1.341933844267307  0.
-0.33561773835266023 -1.3044989456734075  0.
-0.29465903419010975 -1.2920178991991527  0.
-0.2576777440400793 -1.3123179029212397  0.
-0.48623247566262023 -1.3777579176530776  0.
-0.5279855203506636 -1.390580531303221  0.
-0.5657199270939258 -1.3704753557932066  0.
-0.57633715996277 -1.3289975407657728  0.
-0.5542504809632988 -1.291707799080771  0.
-0.5123673880512699 -1.2790596844598365  0.
-0.47496233283073286 -1.2989875978437442  0.
0.36410093754883005 -1.2493971096015468  0.
0.3258016132828444 -1.260200479492742  0.
0.2902905050099659 -1.2396981690936197  0.
0.27761852713877716 -1.2006111454027353  0.
0.2953912109554888 -1.1647346971868322  0.
0.33338625307061065 -1.1542190440409843  0.
0.368978711027633 -1.174435589978139  0.
0.1642189533515997 -1.214306096018755  0.
0.1261224032203765 -1.2252842320213289  0.
0.09100302012629596 -1.2055263712905073  0.
0.07915212773698144 -1.166909588686635  0.
0.09739428185517825 -1.131356507117322  0.
0.13509007610519475 -1.1202574886272798  0.
0.1700641146223097 -1.1400064837228083  0.
-0.03343875146412918 -1.1880951255086118  0.
-0.07158191906036286 -1.1995561457158757  0.
-0.10652427852347535 -1.1803750339873733  0.
-0.11755694953132895 -1.1419870381750947  0.
-0.0986524466627783 -1.1067361867059884  0.
-0.06087541318638572 -1.095133203877479  0.
-0.026227114070578792 -1.11432000151813  0.
-0.23266324784842377 -1.1710627200972348  0.
-0.2712707427992381 -1.1829913684343611  0.
-0.30645044780574676 -1.1642653764344464  0.
-0.31683358853895494 -1.1258221142287261  0.
-0.2970112764048027 -1.0905511393368224  0.
-0.25861646327095583 -1.0784891552418163  0.
-0.22380647439478865 -1.097232514568332  0.
-0.4377095687252133 -1.162163470432288  0.
-0.4770220099336833 -1.1746184484562567  0.
-0.5125610977383032 -1.1560099985770045  0.
-0.5225576899750771 -1.11711374987846  0.
-0.5017763271663982 -1.0820682221286158  0.
-0.46254422483581265 -1.069751275484324  0.
-0.42721385112116655 -1.0880160164766655  0.
0.3513271149109896 -1.0368854152330573  0.
0.31594063103177084 -1.0469381196292193  0.
0.2829218395684637 -1.0280908586417918  0.
0.27076721250304703 -0.991925356867083  0.
0.2867769636052838 -0.9587598842065245  0.
0.32160182273944554 -0.9487794427091275  0.
0.35470434119403865 -0.9673544467996015  0.
0.1665037793390743 -1.0030823462744027  0.
0.1314050222172819 -1.0134890903131506  0.
0.09882563477944294 -0.9953503841881024  0.
0.08750931778715491 -0.9596983297224796  0.
0.10395480892687184 -0.9267400803172607  0.
0.13860401034768943 -0.9162669052588103  0.
0.17105907884093088 -0.9343388287595621  0.
-0.01586004453868807 -0.9793888611160397  0.
-0.05111843516182677 -0.9902554255343309  0.
-0.08364295353879408 -0.9727191515397253  0.
-0.09406089404070755 -0.9371938062023154  0.
-0.07684335905523261 -0.9044135495759625  0.
-0.04197787776994796 -0.89339807533584  0.
-0.00977683455870855 -0.9109546732564108  0.
-0.19998687436090118 -0.9653820557335021  0.
-0.23562813854553752 -0.9767904112487944  0.
-0.2682482435660926 -0.959742764625857  0.
-0.2780219119470372 -0.92428836375962  0.
-0.25979479906370534 -0.8915833246239926  0.
-0.22441380084542562 -0.8801028417674156  0.
-0.19217860206615583 -0.8971163447915881  0.
-0.39011531597475535 -0.9609474612352167  0.
-0.4264090555222305 -0.9728239327587864  0.
-0.45953230011590623 -0.9560975507151033  0.
-0.4686795397946452 -0.9201369735758494  0.
-0.44947218109781106 -0.8876884240236909  0.
-0.41324769237789133 -0.8758142851505338  0.
-0.38063773082681673 -0.8923936727962174  0.
0.3320680819899613 -0.8392792960818684  0.
0.29998487012142766 -0.848542324151914  0.
0.2696173312767316 -0.8313475929798804  0.
0.25791393919786293 -0.7984506864743467  0.
0.2719679276337608 -0.7677844068362462  0.
0.3036953847754761 -0.7586552269839022  0.
0.3341601731370737 -0.7757247710635896  0.
0.1638040847715306 -0.8075376519566467  0.
0.1319359050579945 -0.8171343597130827  0.
0.10210504314934642 -0.8007475487221501  0.
0.0913693143753322 -0.7683154283265553  0.
0.10595132494201516 -0.7380910188791934  0.
0.13737985880621215 -0.7283373356564029  0.
0.16700665776571577 -0.744762128098816  0.
-0.0019568480123029267 -0.7860691415989077  0.
-0.03396605539657323 -0.7962364608191714  0.
-0.0637039315289038 -0.7805014866634343  0.
-0.07346921797849526 -0.7482639811826525  0.
-0.05803452432204064 -0.7182522020553224  0.
-0.026437424225069988 -0.7079385456410205  0.
0.002984804818793991 -0.7237065050679657  0.
-0.16943273561827185 -0.7752761748851636  0.
-0.20186215495699328 -0.7860199279488733  0.
-0.23175957150779242 -0.770861738044276  0.
-0.2406850001456919 -0.7386131274701767  0.
-0.2242059129901033 -0.7086857341429303  0.
-0.19207778315409513 -0.6977175828318156  0.
-0.16258405925406635 -0.7129622246712098  0.
-0.3428230703294733 -0.7745138522251687  0.
-0.37599756375545906 -0.785839147634858  0.
-0.40627907264334334 -0.7710513372501493  0.
-0.41474353571348976 -0.7382275393621432  0.
-0.3972228316452133 -0.7084438569897131  0.
-0.36393998670824634 -0.6970689698681987  0.
-0.3340286422884758 -0.7117964817311564  0.
0.30635262618081255 -0.6598974697015936  0.
0.277574768003159 -0.6683970535973306  0.
0.25008569745827874 -0.6529737268727522  0.
0.2390431053636519 -0.6233112425631491  0.
0.2511824273956995 -0.5957294533430235  0.
0.27949432735292623 -0.5873374712129695  0.
0.30708078635370223 -0.6026606437206666  0.
0.15613027510663974 -0.6292554676615648  0.
0.12763865905039315 -0.6380550549278452  0.
0.10069225682721399 -0.6234287166801612  0.
0.09068851160398422 -0.5943812177758449  0.
0.1033901603772968 -0.5671585541501916  0.
0.1313650375792872 -0.5583103209711469  0.
0.1581020322247422 -0.5728112991846587  0.
0.008373489094736482 -0.6099722341456603  0.
-0.020211029486433676 -0.6193277126262424  0.
-0.0469810275462386 -0.6054377298198371  0.
-0.0559262007061586 -0.5766325029979862  0.
-0.042399319501932244 -0.5495238086305337  0.
-0.014213644842575375 -0.540032275679668  0.
0.0122158543965273 -0.5539590403836154  0.
-0.14086843404821042 -0.6023572205877559  0.
-0.1699758661413378 -0.6123682962123963  0.
-0.19693549253803388 -0.5990565418453538  0.
-0.20497129291813918 -0.570168593630587  0.
-0.19029373762595256 -0.543085058976262  0.
-0.16152396446496517 -0.5330152802481666  0.
-0.13502386041549416 -0.5463302692465754  0.
-0.2961566681694487 -0.6063208212861854  0.
-0.32596769763313543 -0.6169734133073226  0.
-0.3534194444257701 -0.6040201470317412  0.
-0.3608105991177946 -0.5745595148384169  0.
-0.34491207416184877 -0.5478471060274402  0.
-0.31522070049305057 -0.5372115902966205  0.
-0.28830029846087946 -0.5499499134478895  0.
0.27435486906657525 -0.4989032208168112  0.
0.2493278379603506 -0.5063318722439935  0.
0.22536937811764038 -0.4926089620301386  0.
0.21506225616136343 -0.46699235907359465  0.
0.2249819279142062 -0.4427973342752612  0.
0.2493573330780495 -0.4356600601349593  0.
0.2736403636932106 -0.44879276390290834  0.
0.14321426110343352 -0.4697335706677583  0.
0.11859828631985259 -0.47749914532314497  0.
0.09493387454018032 -0.4648773754984731  0.
0.08584012872879523 -0.43957627715484854  0.
0.09644129142836122 -0.41575755835588035  0.
0.12056090886846717 -0.4078737203758231  0.
0.14394222665434023 -0.4205232972837014  0.
0.015145080151850968 -0.4524481970940388  0.
-0.009768387443730143 -0.46086885850550896  0.
-0.03327652435801322 -0.44891937316799435  0.
-0.04132615919339531 -0.4237850560944645  0.
-0.02970488545375549 -0.4000697522849932  0.
-0.005283100110507345 -0.3915302773596505  0.
0.01784624707064637 -0.4034971177758214  0.
-0.11457657166410636 -0.44776634100205936  0.
-0.13996482956604414 -0.45681675203979066  0.
-0.1635092672936457 -0.4455580636086883  0.
-0.17058976210335877 -0.4204605369768522  0.
-0.15779478817203027 -0.39677649326370273  0.
-0.13280975628793448 -0.38751814008515884  0.
-0.10969246831121328 -0.39879807547037954  0.
-0.25038887351279193 -0.4550247156837727  0.
-0.2762977725812612 -0.4648851048509574  0.
-0.30023297589137155 -0.45409899058753067  0.
-0.3066892516653137 -0.4284322737549418  0.
-0.29270448343124505 -0.40499495595730695  0.
-0.2666518424505136 -0.3953657158207134  0.
-0.2432134347763553 -0.40592614407669847  0.
0.2359063651138414 -0.3583359395363313  0.
0.21486930338877275 -0.3647393053992458  0.
0.19410351358991815 -0.3529662116528588  0.
0.18475061299010398 -0.331082905614256  0.
0.19251331797937354 -0.3102224550217241  0.
0.21319269913917674 -0.30424069786857577  0.
0.2340722987811116 -0.3156215209120172  0.
0.1257977873711951 -0.33051989567522616  0.
0.10493433909642291 -0.33712005888879554  0.
0.08470321158088824 -0.32637623534635996  0.
0.07656203982252544 -0.30499008989146503  0.
0.08511106412516453 -0.2845542716478962  0.
0.10538763810738136 -0.2778323946726872  0.
0.1253942891156928 -0.2885550920124463  0.
0.018393118103428075 -0.314895375958156  0.
-0.002558991593378112 -0.3222025201264637  0.
-0.022509620609439143 -0.3122714966550212  0.
-0.02944237350792091 -0.2910772873499848  0.
-0.019857804058152892 -0.27092662673876866  0.
0.0005389893603428286 -0.2634702632231106  0.
0.02005530497064015 -0.27343528257558686  0.
-0.0901215311400601 -0.31300290268416264  0.
-0.1116011555126701 -0.32103175850526317  0.
-0.13178748173462085 -0.31184124524861834  0.
-0.13768445359839387 -0.29055826019404946  0.
-0.1267901018876584 -0.2703041245867277  0.
-0.10564390126108807 -0.2620672025769283  0.
-0.08603922544454619 -0.27133740998995415  0.
-0.20442701704940822 -0.32436821920810777  0.
-0.22671816385870644 -0.3332895473306365  0.
-0.2471025456297034 -0.3244197065461797  0.
-0.2523021548257716 -0.30255281522655847  0.
-0.24009181533990262 -0.282651717452882  0.
-0.21804853911780145 -0.27384104126597386  0.
-0.19792631297162577 -0.2822680647453553  0.
0.19162592935163522 -0.24059960094755417  0.
0.17471231632151268 -0.2455156375766222  0.
0.15777966653331654 -0.23588328449132628  0.
0.14962195207989157 -0.21818336908440455  0.
0.15524683226062055 -0.20146794931791143  0.
0.17150217750883787 -0.196639913474395  0.
0.18849941910412732 -0.20604574091953862  0.
0.1032913084423746 -0.21301909421186582  0.
0.0866990334698761 -0.21838265318179997  0.
0.07039522516749454 -0.2096720936524468  0.
0.06345720926570417 -0.19255102050715384  0.
0.06976781957347374 -0.1761217312894183  0.