<?xml version="1.0"?>
<VTKFile type="UnstructuredGrid" version="0.1" byte_order="LittleEndian" compressor="vtkZLibDataCompressor">
<UnstructuredGrid>
<Piece NumberOfPoints="82" NumberOfCells="40">
<PointData>
<DataArray type="Float64" Name="displacement" NumberOfComponents="3" format="ascii" >
0.0 0.0  0.
0.0 0.0  0.
8.557675009838861e-07 -8.632632113551841e-06  0.
-8.557486637313098e-07 -8.632628288988681e-06  0.
1.6687683244680375e-06 -3.3950780516335766e-05  0.
-1.6687156130046229e-06 -3.395077746337742e-05  0.
2.440090221163194e-06 -7.510993143990654e-05  0.
-2.440006669192541e-06 -7.510992823127705e-05  0.
3.170831772388625e-06 -0.00013128750464417777  0.
-3.1707167678605397e-06 -0.00013128750146695496  0.
3.862089273015471e-06 -0.00020168286615346797  0.
-3.861942939409476e-06 -0.00020168286296990898  0.
4.514959913420572e-06 -0.00028551726695195837  0.
-4.514782225835727e-06 -0.00028551726376967754  0.
5.130540018397191e-06 -0.0003820339932658315  0.
-5.130330981843848e-06 -0.00038203399008329285  0.
5.709926780218533e-06 -0.0004904981359353683  0.
-5.709686393704069e-06 -0.0004904981327528822  0.
6.254216378656375e-06 -0.0006101969155616172  0.
-6.253944642371532e-06 -0.0006101969123791203  0.
6.764506367102516e-06 -0.0007404391785309828  0.
-6.764203281012657e-06 -0.0007404391753484875  0.
7.241893103678803e-06 -0.000880556000598777  0.
-7.2415586677746704e-06 -0.0008805559974162812  0.
7.687473389614098e-06 -0.0010299002770870996  0.
-7.68710760390385e-06 -0.0010299002739046037  0.
8.102343998897052e-06 -0.0011878468468791371  0.
-8.101946863345606e-06 -0.0011878468436966408  0.
8.487601409304497e-06 -0.0013537926141257482  0.
-8.487172923881832e-06 -0.0013537926109432519  0.
8.844342724534391e-06 -0.0015271561418724257  0.
-8.843882889247517e-06 -0.0015271561386899295  0.
9.173665161404924e-06 -0.0017073778263959022  0.
-9.17317397630198e-06 -0.0017073778232134054  0.
9.476664551594086e-06 -0.0018939208075234356  0.
-9.476142016611323e-06 -0.0018939208043409397  0.
9.754438161798922e-06 -0.0020862692891135885  0.
-9.753884277002665e-06 -0.002086269285931093  0.
1.0008083084406291e-05 -0.0022839294682001437  0.
-1.0007497849817028e-05 -0.0022839294650176477  0.
1.0238695437131922e-05 -0.0024864302854448995  0.
-1.023807885269141e-05 -0.0024864302822624035  0.
1.0447372610778385e-05 -0.0026933214760944007  0.
-1.0446724676507087e-05 -0.002693321472911902  0.
1.0635210782405882e-05 -0.0029041759399040397  0.
-1.063453149816289e-05 -0.0029041759367215416  0.
1.0803307034284007e-05 -0.0031185875149632955  0.
-1.080259640013128e-05 -0.0031185875117807982  0.
1.0952758330508398e-05 -0.0033361720488148004  0.
-1.0952016346517159e-05 -0.0033361720456323036  0.
1.10846610583596e-05 -0.0035565682152927684  0.
-1.108388772451947e-05 -0.0035565682121102716  0.
1.1200112344334398e-05 -0.0037794353752222507  0.
-1.1199307660612451e-05 -0.003779435372039752  0.
1.1300208482688072e-05 -0.004004456491198353  0.
-1.1299372448990204e-05 -0.004004456488015857  0.
1.1386046821087098e-05 -0.004231334038928737  0.
-1.138517943760644e-05 -0.004231334035746242  0.
1.145872386221024e-05 -0.004459794548142468  0.
-1.145782512897152e-05 -0.004459794544959971  0.
1.151933620804631e-05 -0.00468958640285752  0.
-1.1518406124819264e-05 -0.004689586399675021  0.
1.1568980962966949e-05 -0.0049204779245498875  0.
-1.1568019529863112e-05 -0.00492047792136739  0.
1.1608754746148856e-05 -0.005152261440368029  0.
-1.1607761963152058e-05 -0.0051522614371855326  0.
1.1639754240528127e-05 -0.00538475114901036  0.
-1.1638730107582093e-05 -0.005384751145827863  0.
1.1663076386692268e-05 -0.005617781185825816  0.
-1.1662020903994347e-05 -0.005617781182643323  0.
1.1679817889270609e-05 -0.0058512096219120995  0.
-1.1678731056858124e-05 -0.005851209618729606  0.
1.1691075481723962e-05 -0.0060849165362779345  0.
-1.1689957299532533e-05 -0.006084916533095439  0.
1.1697946000309822e-05 -0.006318801840336164  0.
-1.1696796468317691e-05 -0.006318801837153669  0.
1.1701526196387593e-05 -0.006552789414549308  0.
-1.1700345314644427e-05 -0.006552789411366812  0.
1.1702912842591697e-05 -0.0067868244670421405  0.
-1.1701700611012873e-05 -0.006786824463859643  0.
1.1703202711736109e-05 -0.007020874749918915  0.
-1.1701959130187994e-05 -0.007020874746736417  0.
</DataArray>
<DataArray type="Float64" Name="Nodal_sigma_xx" NumberOfComponents="1" format="ascii" >
-0.0007607890293002129 
-0.0007607890293002129 
-0.0007602995028719306 
-0.0007602995028719306 
-0.0007605374557897449 
-0.0007605374557897449 
-0.000758458161726594 
-0.000758458161726594 
-0.0007651380728930235 
-0.0007651380728930235 
-0.000775297696236521 
-0.000775297696236521 
-0.0007655040826648474 
-0.0007655040826648474 
-0.0007742399466224015 
-0.0007742399466224015 
-0.0008165715844370425 
-0.0008165715844370425 
-0.0008011320023797452 
-0.0008011320023797452 
-0.000729960564058274 
-0.000729960564058274 
-0.0007256015087477863 
-0.0007256015087477863 
-0.0006699693622067571 
-0.0006699693622067571 
-0.0005789516144432127 
-0.0005789516144432127 
-0.0005790239083580673 
-0.0005790239083580673 
-0.0005962174327578396 
-0.0005962174327578396 
-0.0005652924301102757 
-0.0005652924301102757 
-0.0006712166359648108 
-0.0006712166359648108 
-0.0007630337495356798 
-0.0007630337495356798 
-0.0006736490468028933 
-0.0006736490468028933 
-0.0005987582553643733 
-0.0005987582553643733 
-0.0003512999683152884 
-0.0003512999683152884 
-0.00028552977892104536 
-0.00028552977892104536 
-0.00048339807835873216 
-0.00048339807835873216 
-0.000615652825217694 
-0.000615652825217694 
-0.0005094274383736774 
-0.0005094274383736774 
-0.0003186088433722034 
-0.0003186088433722034 
-0.0005186476555536501 
-0.0005186476555536501 
-0.0008056475417106412 
-0.0008056475417106412 
-0.0005676309374393895 
-0.0005676309374393895 
-0.0003140370608889498 
-0.0003140370608889498 
-0.00031423141626873985 
-0.00031423141626873985 
-0.00033054756931960583 
-0.00033054756931960583 
-0.0006452932138927281 
-0.0006452932138927281 
-0.0009248409005522262 
-0.0009248409005522262 
-0.001067723977030255 
-0.001067723977030255 
-0.0009035464827320538 
-0.0009035464827320538 
-0.0007717572625551838 
-0.0007717572625551838 
-0.0007208295478449145 
-0.0007208295478449145 
-0.000438472169889792 
-0.000438472169889792 
-0.00033904227120729047 
-0.00033904227120729047 
</DataArray>
<DataArray type="Float64" Name="Nodal_sigma_yy" NumberOfComponents="1" format="ascii" >
-150.21887310931925 
-150.21887310931925 
-210.1748468244332 
-210.1748468244332 
-258.03471641772194 
-258.03471641772194 
-248.37899693771033 
-248.37899693771033 
-250.32703575422056 
-250.32703575422056 
-249.934022325353 
-249.934022325353 
-250.0133109895396 
-250.0133109895396 
-249.99731032204 
-249.99731032204 
-250.0005460655666 
-250.0005460655666 
-249.9998985347629 
-249.9998985347629 
-250.0000215539767 
-250.0000215539767 
-250.0000095954165 
-250.0000095954165 
-250.00000399781857 
-250.00000399781857 
-249.99997879113653 
-249.99997879113653 
-249.99998318738653 
-249.99998318738653 
-249.99999819679942 
-249.99999819679942 
-249.99998514537583 
-249.99998514537583 
-250.0000024317851 
-250.0000024317851 
-250.00003021255543 
-250.00003021255543 
-249.99999926921737 
-249.99999926921737 
-250.00001034987508 
-250.00001034987508 
-249.99997568057734 
-249.99997568057734 
-249.9999694503058 
-249.9999694503058 
-250.00002766192483 
-250.00002766192483 
-250.0000535563886 
-250.0000535563886 
-250.0000230397127 
-250.0000230397127 
-249.99994213641912 
-249.99994213641912 
-249.9999534498711 
-249.9999534498711 
-250.00004248015466 
-250.00004248015466 
-250.0000037399077 
-250.0000037399077 
-249.99997476988574 
-249.99997476988574 
-249.99995742298233 
-249.99995742298233 
-249.9999044101187 
-249.9999044101187 
-249.99998094228613 
-249.99998094228613 
-249.99998781026807 
-249.99998781026807 
-250.00002330026746 
-250.00002330026746 
-250.00002092853538 
-250.00002092853538 
-250.000017066611 
-250.000017066611 
-250.0000530319959 
-250.0000530319959 
-249.99997500963576 
-249.99997500963576 
-249.99994347932454 
-249.99994347932454 
</DataArray>
<DataArray type="Float64" Name="Nodal_sigma_xy" NumberOfComponents="1" format="ascii" >
-197499.98813465843 
-197499.98813465843 
-194999.98830904928 
-194999.98830904928 
-189999.98866655957 
-189999.98866655957 
-184999.98904688028 
-184999.98904688028 
-179999.9892148031 
-179999.9892148031 
-174999.98939553206 
-174999.98939553206 
-169999.9898512005 
-169999.9898512005 
-164999.9902332232 
-164999.9902332232 
-159999.99009011523 
-159999.99009011523 
-154999.98946524505 
-154999.98946524505 
-149999.98977156763 
-149999.98977156763 
-144999.99104655057 
-144999.99104655057 
-139999.9922453654 
-139999.9922453654 
-134999.9922411039 
-134999.9922411039 
-129999.990390138 
-129999.990390138 
-124999.9901678036 
-124999.9901678036 
-119999.99187375128 
-119999.99187375128 
-114999.99127548392 
-114999.99127548392 
-109999.99070355698 
-109999.99070355698 
-104999.99207840074 
-104999.99207840074 
-99999.99384643318 
-99999.99384643318 
-94999.99578392075 
-94999.99578392075 
-89999.9950492038 
-89999.9950492038 
-84999.99439492315 
-84999.99439492315 
-79999.99601924745 
-79999.99601924745 
-74999.99799042521 
-74999.99799042521 
-69999.99881951578 
-69999.99881951578 
-64999.997865493206 
-64999.997865493206 
-59999.9999225854 
-59999.9999225854 
-55000.00202185876 
-55000.00202185876 
-49999.999900276 
-49999.999900276 
-45000.00071914084 
-45000.00071914084 
-40000.00231041412 
-40000.00231041412 
-35000.00016673645 
-35000.00016673645 
-30000.001812790462 
-30000.001812790462 
-25000.003549050107 
-25000.003549050107 
-20000.00082049672 
-20000.00082049672 
-15000.002002375259 
-15000.002002375259 
-10000.006331772598 
-10000.006331772598 
-5000.006512989596 
-5000.006512989596 
-2500.005118126991 
-2500.005118126991 
</DataArray>
</PointData>
<CellData>
</CellData>
<Points>
<DataArray type="Float64" Name="Points" NumberOfComponents="3" format="ascii">
0.0 0.00100000005 0.0
0.0 0.0 0.0
0.00999999978 0.00100000005 0.0
0.00999999978 0.0 0.0
0.0199999996 0.00100000005 0.0
0.0199999996 0.0 0.0
0.0299999993 0.00100000005 0.0
0.0299999993 0.0 0.0
0.0399999991 0.00100000005 0.0
0.0399999991 0.0 0.0
0.0500000007 0.00100000005 0.0
0.0500000007 0.0 0.0
0.0599999987 0.00100000005 0.0
0.0599999987 0.0 0.0
0.0700000003 0.00100000005 0.0
0.0700000003 0.0 0.0
0.0799999982 0.00100000005 0.0
0.0799999982 0.0 0.0
0.0900000036 0.00100000005 0.0
0.0900000036 0.0 0.0
0.100000001 0.00100000005 0.0
0.100000001 0.0 0.0
0.109999999 0.00100000005 0.0
0.109999999 0.0 0.0
0.119999997 0.00100000005 0.0
0.119999997 0.0 0.0
0.129999995 0.00100000005 0.0
0.129999995 0.0 0.0
0.140000001 0.00100000005 0.0
0.140000001 0.0 0.0
0.150000006 0.00100000005 0.0
0.150000006 0.0 0.0
0.159999996 0.00100000005 0.0
0.159999996 0.0 0.0
0.170000002 0.00100000005 0.0
0.170000002 0.0 0.0
0.180000007 0.00100000005 0.0
0.180000007 0.0 0.0
0.189999998 0.00100000005 0.0
0.189999998 0.0 0.0
0.200000003 0.00100000005 0.0
0.200000003 0.0 0.0
0.209999993 0.00100000005 0.0
0.209999993 0.0 0.0
0.219999999 0.00100000005 0.0
0.219999999 0.0 0.0
0.230000004 0.00100000005 0.0
0.230000004 0.0 0.0
0.239999995 0.00100000005 0.0
0.239999995 0.0 0.0
0.25 0.00100000005 0.0
0.25 0.0 0.0
0.25999999 0.00100000005 0.0
0.25999999 0.0 0.0
0.270000011 0.00100000005 0.0
0.270000011 0.0 0.0
0.280000001 0.00100000005 0.0
0.280000001 0.0 0.0
0.289999992 0.00100000005 0.0
0.289999992 0.0 0.0
0.300000012 0.00100000005 0.0
0.300000012 0.0 0.0
0.310000002 0.00100000005 0.0
0.310000002 0.0 0.0
0.319999993 0.00100000005 0.0
0.319999993 0.0 0.0
0.330000013 0.00100000005 0.0
0.330000013 0.0 0.0
0.340000004 0.00100000005 0.0
0.340000004 0.0 0.0
0.349999994 0.00100000005 0.0
0.349999994 0.0 0.0
0.360000014 0.00100000005 0.0
0.360000014 0.0 0.0
0.370000005 0.00100000005 0.0
0.370000005 0.0 0.0
0.379999995 0.00100000005 0.0
0.379999995 0.0 0.0
0.389999986 0.00100000005 0.0
0.389999986 0.0 0.0
0.400000006 0.00100000005 0.0
0.400000006 0.0 0.0
</DataArray>
</Points>
<Cells>
<DataArray type="Int64" Name="connectivity" format="ascii">
0 1 3 2 
2 3 5 4 
4 5 7 6 
6 7 9 8 
8 9 11 10 
10 11 13 12 
12 13 15 14 
14 15 17 16 
16 17 19 18 
18 19 21 20 
20 21 23 22 
22 23 25 24 
24 25 27 26 
26 27 29 28 
28 29 31 30 
30 31 33 32 
32 33 35 34 
34 35 37 36 
36 37 39 38 
38 39 41 40 
40 41 43 42 
42 43 45 44 
44 45 47 46 
46 47 49 48 
48 49 51 50 
50 51 53 52 
52 53 55 54 
54 55 57 56 
56 57 59 58 
58 59 61 60 
60 61 63 62 
62 63 65 64 
64 65 67 66 
66 67 69 68 
68 69 71 70 
70 71 73 72 
72 73 75 74 
74 75 77 76 
76 77 79 78 
78 79 81 80 
</DataArray>
<DataArray type="Int64" Name="offsets" format="ascii">
4
8
12
16
20
24
28
32
36
40
44
48
52
56
60
64
68
72
76
80
84
88
92
96
100
104
108
112
116
120
124
128
132
136
140
144
148
152
156
160
</DataArray>
<DataArray type="UInt8" Name="types" format="ascii" RangeMin="9" RangeMax="9">
9
9
9
9
9
9
9
9
9
9
9
9
9
9
9
9
9
9
9
9
9
9
9
9
9
9
9
9
9
9
9
9
9
9
9
9
9
9
9
9
</DataArray>
</Cells>
</Piece>
</UnstructuredGrid>
</VTKFile>
