<?xml version="1.0"?>
<VTKFile type="UnstructuredGrid" version="0.1" byte_order="LittleEndian" compressor="vtkZLibDataCompressor">
<UnstructuredGrid>
<Piece NumberOfPoints="2626" NumberOfCells="2500">
<PointData>
<DataArray type="Float64" Name="displacement" NumberOfComponents="3" format="ascii" >
0.0 0.0  0.
0.0 0.0  0.
0.0 0.0  0.
0.0 0.0  0.
0.0 0.0  0.
0.0 0.0  0.
0.0 0.0  0.
0.0 0.0  0.
0.0 0.0  0.
0.0 0.0  0.
0.0 0.0  0.
0.0 0.0  0.
0.0 0.0  0.
0.0 0.0  0.
0.0 0.0  0.
0.0 0.0  0.
0.0 0.0  0.
0.0 0.0  0.
0.0 0.0  0.
0.0 0.0  0.
0.0 0.0  0.
0.0 0.0  0.
0.0 0.0  0.
0.0 0.0  0.
0.0 0.0  0.
0.0 0.0  0.
0.009222040366363543 -0.012920678783710735  0.
0.005378548197704851 -0.007854374682092342  0.
0.004419862977546762 -0.005226955785550391  0.
0.003720278423352537 -0.003540747936571072  0.
0.0031997490287809446 -0.0023331807310321396  0.
0.0027492131205699506 -0.001420179378547909  0.
0.002339951629160807 -0.000708362589912888  0.
0.001955231941999266 -0.0001459675090476065  0.
0.0015866079108916658 0.000298663421952104  0.
0.0012288464384285903 0.0006458329136357887  0.
0.000878487587251728 0.000908888964146061  0.
0.0005329985700521227 0.001096508922313278  0.
0.00019035922427597388 0.0012139548671976496  0.
-0.00015119174094424306 0.0012637463267111233  0.
-0.0004933341459589243 0.0012459602295960984  0.
-0.0008378158915143301 0.0011582405395390142  0.
-0.0011866239299819126 0.0009955224951149544  0.
-0.0015422222740211404 0.0007493967542183378  0.
-0.0019079332461712898 0.00040691841538889877  0.
-0.0022887171563369586 -5.154262966287324e-05  0.
-0.0026924356501328217 -0.0006564489974343309  0.
-0.003134733709118652 -0.0014572094702058603  0.
-0.003641282759262951 -0.002542638389091557  0.
-0.004317242385731328 -0.00408517308979564  0.
-0.005218937799746101 -0.006532800063150041  0.
-0.008940012532368126 -0.011270511877774938  0.
0.017092897220170034 -0.019025830763647434  0.
0.012637729294348409 -0.014624120606050933  0.
0.010033468305986342 -0.010757329268024645  0.
0.008404691154349496 -0.0078926126608638  0.
0.007144698390056958 -0.005699145407308332  0.
0.0060906646361467915 -0.00398379653992127  0.
0.00515311663382593 -0.002621898531770237  0.
0.004288970156322755 -0.0015341396486614237  0.
0.003473054738458795 -0.0006683675110547049  0.
0.00268983723321337 1.0440033359946153e-05  0.
0.0019287950138779327 0.000525935992993636  0.
0.0011822225078227078 0.0008937562246988618  0.
0.00044398279034496893 0.0011234668347192497  0.
-0.0002912546492007851 0.0012196488230564989  0.
-0.0010285651687841583 0.0011823885628924828  0.
-0.0017732420493014928 0.0010072873379558369  0.
-0.002531331756558227 0.0006849955024455814  0.
-0.003310356397674487 0.00020016179952676863  0.
-0.004120487860360833 -0.0004704628521792126  0.
-0.00497657120109546 -0.0013612866815075082  0.
-0.005902484361733173 -0.002523522798988194  0.
-0.006938653760015873 -0.0040351029573317465  0.
-0.008169849845776154 -0.0060189108765750345  0.
-0.009747237425378143 -0.008667044344753776  0.
-0.012259758444407952 -0.01231606354413964  0.
-0.016579919673947972 -0.016466122676801014  0.
0.024060688161510715 -0.02424082042073796  0.
0.0196511966611411 -0.01990468860346558  0.
0.016255502944430712 -0.015889184005849637  0.
0.01369025054594261 -0.012450857472929419  0.
0.011647536441097048 -0.00963352550223403  0.
0.009909650771692372 -0.007332726327455463  0.
0.008366751825039072 -0.0054562434515528615  0.
0.006952071220195474 -0.003930864603018647  0.
0.005624786595612256 -0.0027023983492661125  0.
0.004357857553060685 -0.0017315157383078054  0.
0.003132312539158563 -0.0009903011859915586  0.
0.00193387808176579 -0.0004597063217667486  0.
0.0007510048194333683 -0.00012786839850364453  0.
-0.00042643066934129945 1.0901514470217393e-05  0.
-0.001608098324374157 -4.341052927033502e-05  0.
-0.0028040680463873274 -0.00029652883595968126  0.
-0.0040257610671047064 -0.0007603731274569201  0.
-0.005287198978303389 -0.001454095691286541  0.
-0.006606889667804536 -0.0024058174058135123  0.
-0.008011031973823073 -0.003655276358227032  0.
-0.009538948991651237 -0.005257543879676938  0.
-0.01125494290822521 -0.007287749905577078  0.
-0.01326448020915293 -0.009842085600625819  0.
-0.015780032340033587 -0.013033445527753266  0.
-0.019107680216493287 -0.016822478301004397  0.
-0.02342711241194669 -0.020930497615976495  0.
0.030863293161474566 -0.028993401473646208  0.
0.026406694491477676 -0.024740732041373854  0.
0.02251743791701219 -0.0206988571947523  0.
0.01924909963887591 -0.01706577582160543  0.
0.016474195151648746 -0.013916290455714013  0.
0.01405187651392396 -0.011245148567308022  0.
0.011874527590284649 -0.009006276119548368  0.
0.009870160286139714 -0.007150793883441886  0.
0.007988734640702112 -0.005635613589488398  0.
0.00619474762111739 -0.004426131976126603  0.
0.004461818050436446 -0.003496095638564778  0.
0.0027693052173958 -0.0028268170095084254  0.
0.0011000393339000189 -0.0024063853557659103  0.
-0.0005612813773988234 -0.0022291001765323806  0.
-0.002229366844111695 -0.002295194828290054  0.
-0.003919480712249996 -0.00261087261478914  0.
-0.005648701390573265 -0.0031886594545115364  0.
-0.007437491168843344 -0.004048076995678373  0.
-0.009311921611118993 -0.005216600548547449  0.
-0.011306962705124182 -0.006730697971794674  0.
-0.013471873224025587 -0.008636413255399081  0.
-0.0158775389924509 -0.010987245162910445  0.
-0.018630616178590364 -0.013836218136591232  0.
-0.021872193368467546 -0.017196134572234408  0.
-0.02572997523989802 -0.02099443170310897  0.
-0.03013949698302703 -0.025028470211859496  0.
0.037609057813349604 -0.03373450263579884  0.
0.03298513137738376 -0.02951671001476341  0.
0.028697801344236884 -0.025501670927597746  0.
0.024860261812957633 -0.02180449460387843  0.
0.021445157803216357 -0.01850284482878458  0.
0.018374423086274367 -0.015620914898707764  0.
0.015568796719857347 -0.013149921034469585  0.
0.012962597028135051 -0.011065447327456044  0.
0.010504982646284465 -0.009340037215987666  0.
0.008156468225124992 -0.007948408006283846  0.
0.005885815084043802 -0.006869747296500293  0.
0.0036673810600539765 -0.006088469146630528  0.
0.0014791064460777427 -0.005594385568332878  0.
-0.0006990835021141722 -0.005382683784487679  0.
-0.002886644281879951 -0.005453905723152779  0.
-0.005103671374831332 -0.005814011428359759  0.
-0.007372265022443577 -0.006474530993197645  0.
-0.00971812768806968 -0.007452751315374809  0.
-0.012172597588894486 -0.008771765588852181  0.
-0.014775320888240953 -0.010459988139633787  0.
-0.01757748743253608 -0.012549202891495158  0.
-0.02064555334596815 -0.015069596984125496  0.
-0.024060331094711177 -0.018036753999707424  0.
-0.02790208204597139 -0.021432711794908455  0.
-0.032198402163936296 -0.025183595301270685  0.
-0.03682682306420528 -0.0291793103144757  0.
0.04433904331147667 -0.03867248334396395  0.
0.03944377281552618 -0.03447465232319854  0.
0.034772066616369855 -0.030490454527877364  0.
0.030434076600242135 -0.026787292481451966  0.
0.026445777481938795 -0.02342420149753903  0.
0.02277193365330948 -0.020434426300852217  0.
0.019359846428808173 -0.017826784081341328  0.
0.016156925479466847 -0.015595011832825646  0.
0.013116705611305637 -0.013725594528002108  0.
0.010199787376606621 -0.012203234524656905  0.
0.007372806038060332 -0.011013883224069964  0.
0.004606963328572507 -0.010146358609175243  0.
0.001876572954462597 -0.00959316837215222  0.
-0.0008422694105252045 -0.009350913859952832  0.
-0.0035729349365063137 -0.00942048272480586  0.
-0.006339443603002049 -0.00980712808563421  0.
-0.00916772735769297 -0.010520434658773913  0.
-0.012086991532712303 -0.011574093671343903  0.
-0.015131243226005456 -0.01298528575547977  0.
-0.01834083768853244 -0.014773253898570768  0.
-0.021763715303472847 -0.0169564417759101  0.
-0.025454635545843856 -0.019546933728200447  0.
-0.029469194721949265 -0.02254211842904425  0.
-0.03384567362938052 -0.025914595475373097  0.
-0.03856909186933322 -0.02961095402609764  0.
-0.04352457936857672 -0.033573867296384535  0.
0.05105416364009756 -0.04393599306426143  0.
0.0458139275048489 -0.039750946165050656  0.
0.04074399043806401 -0.03579578516448523  0.
0.03593436998577938 -0.03210829917205608  0.
0.031415269630076646 -0.02873055959900246  0.
0.027175338585644034 -0.02569347340785  0.
0.023181998959873395 -0.023013221156595248  0.
0.01939546389575943 -0.02069397334405374  0.
0.01577599587069877 -0.018732419112232484  0.
0.01228674914869623 -0.017121647766672743  0.
0.00889440934050369 -0.01585397312281211  0.
0.0055687580665138205 -0.014922718975381409  0.
0.0022818723839767813 -0.014323317403371246  0.
-0.0009928107982037312 -0.014053936674831987  0.
-0.004281486348037451 -0.014115796266824781  0.
-0.0076109447205875745 -0.014513247556799204  0.
-0.011009587790293823 -0.015253614778096374  0.
-0.014508414021305762 -0.016346726906238125  0.
-0.018141915771174057 -0.017803975834848777  0.
-0.02194860139497206 -0.019636629737130974  0.
-0.025970536877068795 -0.021853046914640243  0.
-0.030250564778388295 -0.024454631369559807  0.
-0.03482491444790515 -0.02743098942164702  0.
-0.03970863622036212 -0.030757126504300084  0.
-0.04487394877914647 -0.034397989525561654  0.
-0.05023107172923018 -0.03832764477110993  0.
0.05774566990327571 -0.049602576502169204  0.
0.05210960300930895 -0.04542859027938313  0.
0.04662134589451583 -0.04149939990491187  0.
0.04134878415328142 -0.0378356555408441  0.
0.036322746243253726 -0.0344660453296015  0.
0.0315433252339159 -0.03141620149087386  0.
0.026990931775232593 -0.02870371913619658  0.
0.022636085443223635 -0.02633798458897195  0.
0.018445742438969924 -0.024322082866895536  0.
0.014386685080640445 -0.02265521357811294  0.
0.010426997713349075 -0.021334800783953445  0.
0.0065363809790975206 -0.020358057145950962  0.
0.002685909670083412 -0.019723061266596464  0.
-0.0011524927789707967 -0.019429429523553098  0.
-0.005006733067014858 -0.01947866385548955  0.
-0.008905223537906732 -0.019874223206235497  0.
-0.012877588115541478 -0.020621308505008006  0.
-0.016955240025350926 -0.02172631582613928  0.
-0.02117172000762197 -0.023195864303272383  0.
-0.025562442994144452 -0.02503526643186056  0.
-0.0301633618725845 -0.027246412075093193  0.
-0.035007564628716216 -0.029825231265364655  0.
-0.040118795221798856 -0.03275968528542265  0.
-0.045501341989001104 -0.03603021617064047  0.
-0.051128436632616826 -0.039615792022990724  0.
-0.056936412232098194 -0.043507584085241226  0.
0.06440167259897325 -0.05572064349266849  0.
0.05833541948153151 -0.05155818671456903  0.
0.05241006416152482 -0.04765269606070825  0.
0.046674130261833674 -0.04401492615845996  0.
0.041153497851890236 -0.040664111708421255  0.
0.03585233680841997 -0.037620339117623726  0.
0.030758521061035795 -0.034900008445469616  0.
0.025849871361854723 -0.032514415714118776  0.
0.021098983406640265 -0.030470171607419987  0.
0.01647634267122611 -0.028770432179526892  0.
0.011952076280217199 -0.027416285865994046  0.
0.007496678016215072 -0.026407926676322233  0.
0.003081170606098138 -0.025745552327423808  0.
-0.0013230702422094083 -0.025429961837136195  0.
-0.005744691798704643 -0.025462873557921616  0.
-0.010212745640342984 -0.02584698212582623  0.
-0.01475708841372038 -0.02658574170557918  0.
-0.01940860292491592 -0.027682857626690715  0.
-0.02419911872212298 -0.029141454754954433  0.
-0.02916071594404004 -0.030962908266078722  0.
-0.034324083815020605 -0.03314545299736237  0.
-0.03971536637802402 -0.035682899548970616  0.
-0.04535123675738179 -0.038564257363559146  0.
-0.051232578562205894 -0.04177554917279877  0.
-0.057339017724599615 -0.045305216219422045  0.
-0.06362901738677255 -0.0491533699744664  0.
0.071010357635296 -0.06232014967964876  0.
0.06449113836581416 -0.05817058007952514  0.
0.058113541469371074 -0.054287271423310864  0.
0.0519104368119588 -0.050675405438601565  0.
0.045901039759109113 -0.04734778341783215  0.
0.040089633068983464 -0.04431975499526456  0.
0.03446776859098372 -0.04160554800910264  0.
0.02901797460846314 -0.039216550329699805  0.
0.023717128861677237 -0.03716094325307013  0.
0.018538989328766485 -0.035444150475842116  0.
0.013455874967831937 -0.03406962413352988  0.
0.008439549820479357 -0.0330396243858115  0.
0.0034616300172081223 -0.03235588223726012  0.
-0.0015063314399067025 -0.03202006857810312  0.
-0.006492967861077757 -0.032034050173821826  0.
-0.011527222340414188 -0.032399931470500604  0.
-0.01663849093133306 -0.03311986903384811  0.
-0.02185657215091701 -0.03419566205707073  0.
-0.027211327906858998 -0.035628131555553305  0.
-0.03273180142055412 -0.03741633501911781  0.
-0.0384446355615151 -0.03955679479348526  0.
-0.04437150574036445 -0.04204304923911896  0.
-0.050525720815720335 -0.04486612589606453  0.
-0.05690862260520533 -0.04801664233203589  0.
-0.06350757914567744 -0.05148907512465466  0.
-0.07029838984638713 -0.055287771733257524  0.
0.07756100405427124 -0.0694191001135624  0.
0.07057419649063021 -0.06528395519590811  0.
0.06373315270587973 -0.061421843796670636  0.
0.05705853216885495 -0.05783490660246609  0.
0.05056290261283377 -0.05453168114862136  0.
0.04424874081776867 -0.05152378368065488  0.
0.038108905015531526 -0.048823118512021535  0.
0.03212867114004262 -0.04644025954874478  0.
0.02628793320054774 -0.04438374968532152  0.
0.020563101336782314 -0.04266007927016314  0.
0.014928551035613798 -0.041274040768052564  0.
0.009357502832674681 -0.0402291775333808  0.
0.0038225474687996618 -0.03952822112539434  0.
-0.001704098662823281 -0.039173421617731484  0.
-0.007250529127539596 -0.0391667328371962  0.
-0.01284506985564759 -0.0395098410226712  0.
-0.018516229638275695 -0.040204024219946635  0.
-0.024292468617340194 -0.041249859540077205  0.
-0.03020172923875611 -0.04264681348429786  0.
-0.036270539842701614 -0.044392786605242984  0.
-0.04252266577178908 -0.046483789543747385  0.
-0.04897718864389979 -0.04891399285416517  0.
-0.05564633863675372 -0.05167654472981487  0.
-0.0625336742728174 -0.054765499705829834  0.
-0.06963388550207622 -0.058178965123452504  0.
-0.0769358195060963 -0.0619229091255977  0.
0.08404434278248954 -0.07702756145473502  0.
0.07658109791966612 -0.0729082379214486  0.
0.0692689467031684 -0.06906664001404482  0.
0.06211919526748833 -0.06550334586542676  0.
0.05513847931116668 -0.062224112962535445  0.
0.048326710063691374 -0.05923773806316102  0.
0.041676676824519455 -0.056553999472575577  0.
0.035175045028649654 -0.05418228847205985  0.
0.028803695519137095 -0.05213082065065872  0.
0.022541064818791177 -0.050406365059127274  0.
0.01636331525902745 -0.04901431638181503  0.
0.010245122510869517 -0.04795889683463808  0.
0.004160230498502409 -0.047243406750446366  0.
-0.001918198158992481 -0.04687043121858441  0.
-0.00801739457702539 -0.0468419599172347  0.
-0.014164765296245633 -0.0471594055514742  0.
-0.020387715352629246 -0.047823509022212066  0.
-0.02671331365323222 -0.048834154944703154  0.
-0.03316778661215292 -0.05019014007402731  0.
-0.03977570158278215 -0.05188896570865248  0.
-0.046558904225381025 -0.05392680467366988  0.
-0.053535167848047786 -0.0562988074987651  0.
-0.060716922964677955 -0.05899998869751721  0.
-0.06811052391983473 -0.062026819688103675  0.
-0.07571690521982108 -0.06537945309798916  0.
-0.08353449307719706 -0.06906407196641155  0.
0.09045255391536795 -0.08515023321605343  0.
0.08250813266920788 -0.0810478533786978  0.
0.07472017642700564 -0.07722622753104025  0.
0.0670928997342343 -0.0736852203901183  0.
0.059627931315296506 -0.07042880141384  0.
0.052322477914926564 -0.06746368558958815  0.
0.045168537065597425 -0.0647978420537339  0.
0.03815328399395615 -0.06243940140267671  0.
0.031259816384684815 -0.060395903248565586  0.
0.02446805075585028 -0.058673916343996456  0.
0.017755627059053373 -0.05727894311427837  0.
0.011098567500456485 -0.05621545279699166  0.
0.004471806828977172 -0.05548699223295753  0.
-0.002150419077970931 -0.05509629408722665  0.
-0.008794317220485947 -0.055045343131624964  0.
-0.015486232457859253 -0.05533538728024214  0.
-0.022252399073680346 -0.05596688216867668  0.
-0.02911856230273227 -0.05693939443564629  0.
-0.03610949252410297 -0.05825150400835734  0.
-0.04324828883716735 -0.05990076468532935  0.
-0.05055559017531687 -0.0618838394430016  0.
-0.0580486742916549 -0.06419690910300815  0.
-0.06574079631497595 -0.0668364907814401  0.
-0.07364107420146523 -0.06980067699653873  0.
-0.08175547039332386 -0.07309065936204638  0.
-0.09008931094024705 -0.0767121322844944  0.
0.09677917403373686 -0.09378819816413865  0.
0.08835177361124393 -0.08970357507354329  0.
0.08008569938875161 -0.08590142517861744  0.
0.07197982366770261 -0.08238137382290539  0.
0.06403168317282038 -0.07914625420757473  0.
0.056235949142587414 -0.07620126242768367  0.
0.048583508680599324 -0.07355288593583721  0.
0.041061514840357076 -0.07120806199661207  0.
0.03365374014001128 -0.06917351459824826  0.
0.02634114178218653 -0.06745534862922756  0.
0.01910254060873154 -0.06605886709145589  0.
0.011915145673212649 -0.06498849871361038  0.
0.004755030936898029 -0.06424781244709657  0.
-0.0024024767662485656 -0.06383955389426968  0.
-0.009582515352422983 -0.06376567140736836  0.
-0.016810338903590655 -0.06402732198920051  0.
-0.024111040777175137 -0.06462484613420484  0.
-0.0315091719217427 -0.06555773538408638  0.
-0.039028306809955345 -0.06682462602377798  0.
-0.0466904742413429 -0.06842336255407755  0.
-0.05451560076843504 -0.07035121553422899  0.
-0.06252093912547942 -0.07260530298695794  0.
-0.07072079607562448 -0.07518328659461267  0.
-0.07912673857830685 -0.07808429776677361  0.
-0.08774862505790461 -0.0813099531675791  0.
-0.09659666488670177 -0.08486515579021035  0.
0.10301887519234663 -0.10294001312314342  0.
0.09410879907979386 -0.09887366399107941  0.
0.08536417585851079 -0.09509048682303921  0.
0.07677987126689614 -0.09159011846943549  0.
0.06835014605313265 -0.08837467796908414  0.
0.06006743735358082 -0.08544825827672749  0.
0.05192144062638614 -0.08281615877863349  0.
0.043898992608775174 -0.08048425335651649  0.
0.03598417873725252 -0.07845843189852082  0.
0.028158662597915485 -0.07674421356248805  0.
0.020402185920201425 -0.07534652915119802  0.
0.012692969616799053 -0.07426958988622223  0.
0.005008125133058336 -0.07351684112878694  0.
-0.002675982095825301 -0.07309095048512787  0.
-0.010383453392541118 -0.07299380595069486  0.
-0.018138496146832255 -0.07322651832114394  0.
-0.02596514867784724 -0.07378941703181363  0.
-0.0338869204062636 -0.07468206050373803  0.
-0.0419264223708963 -0.07590328611371217  0.
-0.05010491470573062 -0.07745132833814652  0.
-0.05844193325933449 -0.07932406379688715  0.
-0.06695494586738515 -0.08151939858916102  0.
-0.07565931381362195 -0.08403583123178755  0.
-0.08456863791215255 -0.08687312435230145  0.
-0.09369570697697599 -0.09003296277159611  0.
-0.10305412242956578 -0.09351937791955921  0.
0.10916731651469848 -0.11260253479476937  0.
0.09977638033490409 -0.10855471612021955  0.
0.09055424088579213 -0.10478997739363576  0.
0.08149276940248729 -0.10130808660892193  0.
0.07258364087864956 -0.09811071774284318  0.
0.0638173973553104 -0.09520116162673481  0.
0.05518259187955359 -0.0925837753593842  0.
0.04666560554501767 -0.09026351728793613  0.
0.03825060789507926 -0.08824548956661023  0.
0.029919724862870714 -0.0865345919423814  0.
0.021653403547265984 -0.08513530128384299  0.
0.013430707332624879 -0.08405151370054902  0.
0.005229660753430523 -0.08328646413315746  0.
-0.0029724242988169143 -0.08284268480655635  0.
-0.011198691264341165 -0.08272198540390929  0.
-0.01947238706625772 -0.08292545310910952  0.
-0.02781660794703395 -0.08345346144569826  0.
-0.036253974846424196 -0.08430570601831887  0.
-0.04480632997617416 -0.08548128436745267  0.
-0.053494382885199594 -0.08697883591161001  0.
-0.06233747424291694 -0.08879678143934204  0.
-0.07135338147733485 -0.09093365611014428  0.
-0.08055840930600965 -0.09338854905331112  0.
-0.08996777168460932 -0.09616157851310665  0.
-0.0995964040287861 -0.09925430459909325  0.
-0.10946021234133475 -0.1026699241741774  0.
0.11522096803774987 -0.12277144979031397  0.
0.1053520740468501 -0.11874219987433011  0.
0.09565457957807816 -0.11499532737976344  0.
0.08611812437054092 -0.11153077545244344  0.
0.07673236352989987 -0.10834994137604867  0.
0.06748627218012371 -0.10545552888673386  0.
0.05836737447164684 -0.1028511507290235  0.
0.04936155244996981 -0.1005409928091762  0.
0.040452924648189954 -0.0985294461473695  0.
0.031623907316143895 -0.09682080872128339  0.
0.022855480871836427 -0.09541908005783048  0.
0.014127398204834789 -0.09432779748208148  0.
0.005418467820332007 -0.09354994026282978  0.
-0.0032931622134621044 -0.09308787219820826  0.
-0.012029779399220588 -0.09294331136445894  0.
-0.02081377626495592 -0.0931173285332883  0.
-0.029667427870182225 -0.09361036278001666  0.
-0.038612607631772 -0.09442226972109326  0.
-0.04767054513829881 -0.09555241292402589  0.
-0.056861551102718885 -0.09699980493554755  0.
-0.066204879759204 -0.09876332393290711  0.
-0.07571862681914418 -0.10084198746883813  0.
-0.08541988211811256 -0.10323528695525842  0.
-0.09532509170450283 -0.10594351609603476  0.
-0.10545072212043186 -0.10896801899935243  0.
-0.11581420128197084 -0.11231125036511529  0.
0.12117695529477923 -0.13344163351464958  0.
0.1108337870181536 -0.12943081511410937  0.
0.10066396332706622 -0.1257012012514273  0.
0.0906554654919689 -0.1222529124458265  0.
0.08079638343946315 -0.11908717201875968  0.
0.07107442043488253 -0.11620624872598057  0.
0.06147621011271983 -0.11361316659890469  0.
0.051987148013852874 -0.11131146721843754  0.
0.04259122981157813 -0.10930491692824203  0.
0.033271044715459545 -0.10759725659601654  0.
0.024007972821974276 -0.10619201998435818  0.
0.014782324421940173 -0.1050923765776704  0.
0.005573568971926877 -0.10430103256699798  0.
-0.0036394232429216955 -0.10382016711500894  0.
-0.0128781931976767 -0.10365139703521677  0.
-0.022164390024740396 -0.10379577408310117  0.
-0.031519584765877524 -0.10425380287612034  0.
-0.040965026713274 -0.10502549277378093  0.
-0.05052145473880993 -0.1061104490691173  0.
-0.06020888288058887 -0.10750800325943248  0.
-0.07004653122555257 -0.10921739951172396  0.
-0.08005277665406425 -0.11123801236202759  0.
-0.09024532685182747 -0.11356959603415423  0.
-0.10064153619279366 -0.11621250622238403  0.
-0.11125893096249335 -0.11916784032391942  0.
-0.12211590549335398 -0.12243742305365794  0.
0.1270329628235318 -0.14460746210028813  0.
0.11621976327625744 -0.14061480140776925  0.
0.10558129284975022 -0.13690181047361277  0.
0.09510430376575829 -0.13346876781549233  0.
0.08477568108717863 -0.13031678324381654  0.
0.0745821102218295 -0.12744779732328754  0.
0.06450947514774578 -0.12486436586159497  0.
0.05454272724260346 -0.1225694957692428  0.
0.044665708465982 -0.12056641369674212  0.
0.03486110365110736 -0.11885835971373353  0.
0.025110590939989446 -0.11744843247474895  0.
0.015394927449766 -0.11633944530529669  0.
0.005694132481939564 -0.11553383151915676  0.
-0.0040123101883285444 -0.11503358055757125  0.
-0.013745301843088156 -0.1148402011842489  0.
-0.023525854921885383 -0.1149547180036286  0.
-0.03337494351915062 -0.1153776887668406  0.
-0.0433132973131132 -0.11610925430596977  0.
-0.05336125786184408 -0.11714922264482854  0.
-0.06353860931561617 -0.1184971827327205  0.
-0.07386455537819005 -0.12015265936481183  0.
-0.0843576966293745 -0.12211528178109232  0.
-0.09503620268549517 -0.1243849663548036  0.
-0.10591807268685963 -0.126962062582033  0.
-0.11702153924049052 -0.12984742461342005  0.
-0.12836557464410778 -0.13304235967820385  0.
0.13278708532926667 -0.1562629103626993  0.
0.12150849988703423 -0.1522880310665251  0.
0.11040556445633194 -0.14859100835850264  0.
0.09946412318227121 -0.14517224969843248  0.
0.08867013894139547 -0.14203278507476694  0.
0.07800949184394641 -0.13917430135536432  0.
0.06746744773948542 -0.13659897842388943  0.
0.05702856949973846 -0.13430937971667228  0.
0.04667653984246098 -0.13230826995506867  0.
0.03639409031597236 -0.13059844713205768  0.
0.026163121135791514 -0.1291826141619725  0.
0.015964745808147357 -0.12806325111490338  0.
0.005779436756445955 -0.12724252897219285  0.
-0.004412807348992429 -0.12672224935190793  0.
-0.014632346568852225 -0.12650380846967463  0.
-0.02489965395413823 -0.12658819315625233  0.
-0.03523520079846028 -0.12697599582817629  0.
-0.0456592837444018 -0.12766745932809787  0.
-0.05619191784363763 -0.12866255053952388  0.
-0.06685269993258025 -0.12996105570103317  0.
-0.0776608156600426 -0.1315627057333837  0.
-0.08863502680622956 -0.13346730387782005  0.
-0.09979382967976155 -0.1356748576160006  0.
-0.11115566050059915 -0.13818567193621142  0.
-0.122739198387754 -0.1410003786679044  0.
-0.13456372703194378 -0.14411987041546648  0.
0.13843776534230487 -0.1684017130469507  0.
0.12669872726256923 -0.1644441651909081  0.
0.11513588555283734 -0.16076244628895772  0.
0.10373441565978546 -0.15735706106860367  0.
0.09247957841202728 -0.15422897671300573  0.
0.0813566230175061 -0.1513796780697411  0.
0.07035031396486373 -0.14881103928898698  0.
0.05944488464209864 -0.1465252547097895  0.
0.048623867659531486 -0.1445246952574402  0.
0.03787001202090547 -0.14281177278012258  0.
0.02716538405820617 -0.14138883609580125  0.
0.01649138101135239 -0.1402580599047818  0.
0.00582884646404749 -0.13942136881517037  0.
-0.004841792316272371 -0.13888038262501662  0.
-0.01554044145314368 -0.13863638234538997  0.
-0.026287120216280255 -0.13869030594486995  0.
-0.037101877699990765 -0.139042760144078  0.
-0.048004648196164734 -0.13969405872314386  0.
-0.05901517373391987 -0.14064428449806549  0.
-0.07015289049526001 -0.14189336666359048  0.
-0.08143695487024681 -0.14344118006923964  0.
-0.09288623087915127 -0.14528763986092763  0.
-0.10451942988951834 -0.14743279554824965  0.
-0.11635526597878584 -0.14987688838921753  0.
-0.12841267755973346 -0.15262035615352665  0.
-0.14071108105324487 -0.155663765509134  0.
0.14398375032173472 -0.1810175114169035  0.
0.1317893963691379 -0.17707679497170223  0.
0.1197714884471397 -0.1734097145169501  0.
0.1079147119637596 -0.17001684122946045  0.
0.09620379603643542 -0.16689908643941415  0.
0.08462350000880273 -0.16405776863118146  0.
0.07315818729682468 -0.16149450933365106  0.
0.0617918185345098 -0.1592111936167196  0.
0.05050779299335592 -0.1572098566108462  0.
0.039288861083327214 -0.15549257455088145  0.
0.028117214581899662 -0.15406138233184802  0.
0.016974476917773356 -0.15291817826354465  0.
0.005841794795279032 -0.15206465875385738  0.
-0.005300049517067699 -0.15150226995808308  0.
-0.016470583429856793 -0.15123217651184917  0.
-0.027689445840991353 -0.15125525720334881  0.
-0.03897633135921574 -0.15157211335148502  0.
-0.05035086912617522 -0.15218310026281087  0.
-0.0618325686774639 -0.1530883778227835  0.
-0.07344072219479816 -0.15428797157246724  0.
-0.08519444224704274 -0.15578185001487513  0.
-0.09711264389767145 -0.1575699933879176  0.
-0.10921416494502807 -0.1596524600395709  0.
-0.12151787832334861 -0.16202941999246656  0.
-0.13404284988818477 -0.1647011465521798  0.
-0.14680851232479264 -0.16766795424129477  0.
0.14942396442495762 -0.19410374590777543  0.
0.13677957881766836 -0.19017933028542522  0.
0.12431165902491684 -0.1865262296111887  0.
0.11200453302243239 -0.18314505367634912  0.
0.09984252951865301 -0.18003665910748695  0.
0.0878100307771011 -0.1772022225265729  0.
0.07589108330419939 -0.17464315290804314  0.
0.06406942650335062 -0.17236107370909254  0.
0.05232834624008313 -0.17035773266500587  0.
0.040650586888934526 -0.16863491451758625  0.
0.02901843647509421 -0.16719437697495873  0.
0.017413699556894365 -0.16603776976685616  0.
0.005817770370820897 -0.16516657951902894  0.
-0.00578827535788278 -0.164582087851013  0.
-0.01742364982414802 -0.1642853430461663  0.
-0.02910767333991656 -0.1642771558321785  0.
-0.040859742171518824 -0.16455810448123623  0.
-0.05269922641017531 -0.16512855977852695  0.
-0.06464543412395239 -0.1659887252571174  0.
-0.07671752419201039 -0.16713868427040576  0.
-0.08893455103889163 -0.1685784593478433  0.
-0.10131543889182683 -0.17030806114241934  0.
-0.11387908398535107 -0.17232753490157876  0.
-0.12664443148524906 -0.17463697867751407  0.
-0.13963058415920193 -0.17723652895997152  0.
-0.15285691873449492 -0.1801263073439447  0.
0.15475756469774957 -0.20765392827834248  0.
0.14166853246904312 -0.20374526754016556  0.
0.12875581105556563 -0.20010550126456866  0.
0.11600346990774436 -0.19673525353935212  0.
0.10339553800683358 -0.19363532423457847  0.
0.09091610995676808 -0.1908067648760698  0.
0.07854898476796188 -0.18825080205918868  0.
0.06627772570764544 -0.18596883532524455  0.
0.05408552560758756 -0.18396236482692235  0.
0.04195512075498214 -0.18223292144143666  0.
0.029868874708394867 -0.18078201814294298  0.
0.017808738198390874 -0.1796110815331177  0.
0.0057563081453265415 -0.1787214059859306  0.
-0.006307096963483649 -0.17811411784993506  0.
-0.01840042687243106 -0.17779015002548149  0.
-0.030542734603225326 -0.1777502380144159  0.
-0.042753164220067405 -0.17799492209454665  0.
-0.05505086391152989 -0.17852456652770313  0.
-0.06745496442704098 -0.17933939082571243  0.
-0.07998449874723947 -0.18043950520517144  0.
-0.09265845095608205 -0.1818249556372624  0.
-0.10549572188168842 -0.18349575790599096  0.
-0.11851521577384032 -0.18545193001974106  0.
-0.1317358887738744 -0.18769350089936776  0.
-0.14517682061937404 -0.1902204944019507  0.
-0.1588572898070601 -0.19303288574173938  0.
0.15998380156850076 -0.22166141289670244  0.
0.14645558162555988 -0.2177679582003527  0.
0.1331033885113516 -0.21414089966714933  0.
0.119911106282978 -0.21078085510234132  0.
0.10686254121653564 -0.20768856413178888  0.
0.09394157062361265 -0.20486496463770437  0.
0.08113180250898719 -0.20231112356887554  0.
0.0684166624513832 -0.20002824623572174  0.
0.05577926950272544 -0.19801761762869333  0.
0.04320235299863173 -0.19628054633091208  0.
0.030668337498638388 -0.19481832859324957  0.
0.018159292977241864 -0.19363219048525668  0.