<?xml version="1.0"?>
<VTKFile type="UnstructuredGrid" version="0.1" byte_order="LittleEndian" compressor="vtkZLibDataCompressor">
<UnstructuredGrid>
<Piece NumberOfPoints="2626" NumberOfCells="2500">
<PointData>
<DataArray type="Float64" Name="displacement" NumberOfComponents="3" format="ascii" >
0.0 0.0  0.
0.0 0.0  0.
0.0 0.0  0.
0.0 0.0  0.
0.0 0.0  0.
0.0 0.0  0.
0.0 0.0  0.
0.0 0.0  0.
0.0 0.0  0.
0.0 0.0  0.
0.0 0.0  0.
0.0 0.0  0.
0.0 0.0  0.
0.0 0.0  0.
0.0 0.0  0.
0.0 0.0  0.
0.0 0.0  0.
0.0 0.0  0.
0.0 0.0  0.
0.0 0.0  0.
0.0 0.0  0.
0.0 0.0  0.
0.0 0.0  0.
0.0 0.0  0.
0.0 0.0  0.
0.0 0.0  0.
0.016928335999894868 -0.024227327254412692  0.
0.010084431654626627 -0.014961809642599973  0.
0.00833434448692495 -0.010119484719624584  0.
0.007054455015946334 -0.006977964847826501  0.
0.006092976667825067 -0.004711149464058413  0.
0.005257474007182625 -0.0029836554194682396  0.
0.004496104400979196 -0.0016254599682605448  0.
0.0037790150391832306 -0.0005420128942645112  0.
0.003091081374118672 0.0003244813840403476  0.
0.002422953627954845 0.0010110456595353236  0.
0.001768441047782934 0.0015419463466480171  0.
0.001122999411940557 0.0019328641157286266  0.
0.00048298626427852346 0.002193180581260396  0.
-0.00015479374179005575 0.0023271972094534147  0.
-0.0007934077834586764 0.0023346686683274435  0.
-0.0014360649064164835 0.0022107993235646758  0.
-0.0020864270902216744 0.0019457106595888337  0.
-0.002749045197254861 0.0015232385504958276  0.
-0.0034300566183033893 0.0009186964739652176  0.
-0.004138630784926031 9.485612780646204e-05  0.
-0.004889249339953272 -0.0010058059353335593  0.
-0.005710982684181609 -0.002476195884005256  0.
-0.006650603165583063 -0.004483165050001049  0.
-0.007907709507574991 -0.007348920973797649  0.
-0.009571015957178589 -0.011924283305746745  0.
-0.01661956799338771 -0.0207917167057125  0.
0.031518835811866375 -0.03580828102078012  0.
0.02356945652035204 -0.027735139792974393  0.
0.018867632616002415 -0.020651809646576286  0.
0.015893242716068245 -0.015353693466417394  0.
0.013577333829709057 -0.011261270289986752  0.
0.01162963702270476 -0.008033147917460836  0.
0.009891112334063356 -0.005447161736976229  0.
0.008284697428348382 -0.0033612661787145626  0.
0.006765352587281308 -0.0016817924902556803  0.
0.005305217549485626 -0.0003458085021400977  0.
0.003885377115860633 0.0006890966480521293  0.
0.002491927903840883 0.0014507778760036304  0.
0.0011137402567785392 0.001955999494369428  0.
-0.00025891294833745607 0.0022123516987939316  0.
-0.0016353524294359407 0.002219090590259641  0.
-0.0030253526480697123 0.001967095263571542  0.
-0.004440122490069393 0.0014379436697425523  0.
-0.0058936350516387345 0.0006018919161270521  0.
-0.007404799134434886 -0.000585741375073659  0.
-0.009001197005859834 -0.0021907813717312393  0.
-0.010727227334225297 -0.00431094847147967  0.
-0.012657923614954499 -0.0070948159093600326  0.
-0.014951875006885263 -0.010776871021838472  0.
-0.01788944671122736 -0.015724476805547838  0.
-0.02258709074482986 -0.02258817946727992  0.
-0.030750299076621253 -0.03036899595074899  0.
0.04448502979286437 -0.04572252855770101  0.
0.036608693983359586 -0.03775973945219433  0.
0.03049160529675344 -0.03039170012967544  0.
0.025828775217299902 -0.02404957440467113  0.
0.022087694449175944 -0.018810147121039504  0.
0.01888764154139644 -0.014494536680043137  0.
0.016035027714678796 -0.010942741135302043  0.
0.013411739567322039 -0.008026634558420509  0.
0.010945193703570605 -0.00565086114259493  0.
0.008587127368096404 -0.003746065658981446  0.
0.006303525735118819 -0.002263102506413268  0.
0.004068662725890905 -0.0011686952682198215  0.
0.001861590147882497 -0.0004425624450095266  0.
-0.0003361834537547602 -7.570713502954203e-05  0.
-0.00254244563250336 -6.966735045671846e-05  0.
-0.004775832025457847 -0.00043663702838042  0.
-0.007057572789693389 -0.0012004718442058268  0.
-0.009413801503874225 -0.0023987389984806797  0.
-0.011879054810712922 -0.0040861073882389265  0.
-0.014502252387545142 -0.006339515581248756  0.
-0.01735682180033907 -0.009265460779501397  0.
-0.02056311724684355 -0.013009408165410909  0.
-0.024318532857835175 -0.01775820986485249  0.
-0.029024427546729268 -0.02373348748556131  0.
-0.03526932949807412 -0.030860884015469534  0.
-0.043417349523896975 -0.038578128684448584  0.
0.0571727618013484 -0.054805215544209286  0.
0.04918978212853371 -0.04698165836135776  0.
0.042181682668587996 -0.03954450896888537  0.
0.036251344762640705 -0.032833810575638  0.
0.03118313368139927 -0.02697904386044909  0.
0.026734696072414067 -0.02197420569041879  0.
0.02271910420368048 -0.017742386941548928  0.
0.019010379691710082 -0.014200559120057053  0.
0.015520408562757779 -0.011274874371818632  0.
0.012186271617564465 -0.008905804021960522  0.
0.00896091392645863 -0.007048268659334321  0.
0.00580725702223363 -0.005670518040226569  0.
0.002694216896806391 -0.004752929236889363  0.
-0.0004061358822172715 -0.004287155834120698  0.
-0.003520863242688567 -0.004275775077353744  0.
-0.006678237183544768 -0.0047324970283535266  0.
-0.009910054437208413 -0.00568295815738397  0.
-0.01325454123885365 -0.007166127082377134  0.
-0.016760500801530187 -0.009236273814340949  0.
-0.020493464486138424 -0.011965140006143737  0.
-0.02454585747014352 -0.015443316665546283  0.
-0.029050840100268493 -0.019776498112736015  0.
-0.03420965288829637 -0.02507074423368823  0.
-0.040290976889294686 -0.03135518343263803  0.
-0.047543079906475966 -0.038490147068853474  0.
-0.05584097272925049 -0.04607331871336117  0.
0.06976009065689129 -0.06389070342384741  0.
0.06145596056626392 -0.05611581225060511  0.
0.05372115159283588 -0.04870430502458811  0.
0.04675972221914453 -0.041856597431892975  0.
0.04053028895974581 -0.03570836177099862  0.
0.03490108209214178 -0.030304183740115245  0.
0.029736307665887793 -0.02563222215062335  0.
0.024922342515620928 -0.021653207719884004  0.
0.020370485041209068 -0.018321934458809284  0.
0.016011282623433383 -0.015596455252702101  0.
0.01178932519773282 -0.013442325934695082  0.
0.0076587286918057785 -0.011834164836522481  0.
0.0035796551039414043 -0.010756159958796242  0.
-0.0004844859743910162 -0.010202206173624561  0.
-0.004569467236373591 -0.010176028217440215  0.
-0.008712516545505889 -0.01069144959772738  0.
-0.012954815523829044 -0.011772820964451425  0.
-0.017344455277561656 -0.01345551983800194  0.
-0.02194022747787434 -0.01578620317073093  0.
-0.026816645229211806 -0.01882206464364085  0.
-0.03207006018760892 -0.02262729791073077  0.
-0.0378258733152949 -0.027263771392065067  0.
-0.04423730655108848 -0.03276592308421022  0.
-0.051458034271306546 -0.03910321392474608  0.
-0.05954159351094849 -0.046134261436851044  0.
-0.06824310081411838 -0.053644801875068315  0.
0.08231493086731448 -0.0733663237070928  0.
0.07350419219911296 -0.06561030320824941  0.
0.06506359150580139 -0.058231314175968156  0.
0.057190497452844276 -0.05134942413643139  0.
0.04991823102060237 -0.04506891543268343  0.
0.04318973970460471 -0.03945000523913909  0.
0.03691612466440019 -0.03451120011029383  0.
0.031007367924962257 -0.030245007737519577  0.
0.025383070949966658 -0.026631124124870884  0.
0.01997437399873519 -0.023645818212325323  0.
0.014722381950456062 -0.021267286083973366  0.
0.009575739980728519 -0.019478618694990492  0.
0.004488168223107579 -0.018269407560057693  0.
-0.000583839567243387 -0.017636613736224407  0.
-0.005683219292117419 -0.017585055164341883  0.
-0.010854455264995592 -0.018127686446688707  0.
-0.016145880604172085 -0.01928566404267059  0.
-0.02161218500390661 -0.021088052023383045  0.
-0.027317258078224407 -0.02357078358671242  0.
-0.0333370922495533 -0.02677407402769595  0.
-0.03976216035067804 -0.030737063327259763  0.
-0.04669610744564029 -0.035487175993266964  0.
-0.05424468437423083 -0.04102384700517588  0.
-0.06248111764914102 -0.04729827467917508  0.
-0.07137494084377669 -0.05421017642238381  0.
-0.08069436487661398 -0.06165313557330462  0.
0.0948341460881698 -0.08347139334460842  0.
0.08538520002288258 -0.07571844001665778  0.
0.07621177665832911 -0.06836815197155259  0.
0.0674756368202522 -0.061490168479463786  0.
0.05923417555396628 -0.055160087551695575  0.
0.05147163456101675 -0.04943414691743708  0.
0.04413423258622109 -0.044343453491110074  0.
0.0371545582365752 -0.039898560509189024  0.
0.03046430809734423 -0.036097079556120334  0.
0.02399939167171197 -0.032930266481229986  0.
0.017701204845041903 -0.03038790663374666  0.
0.011515992615823123 -0.028461482142066792  0.
0.005393532490433271 -0.027146191773977656  0.
-0.0007144601740160131 -0.026442166733140437  0.
-0.006856064518007447 -0.026355137236969146  0.
-0.013080864838084245 -0.026896679300638708  0.
-0.019441783528514174 -0.028084014058042898  0.
-0.02599687804902308 -0.02993922365135593  0.
-0.03281099277628409 -0.03248755944680831  0.
-0.03995673161293957 -0.035754313549955716  0.
-0.04751361826688675 -0.039759539122658796  0.
-0.055562905668521415 -0.044510256240001725  0.
-0.06417354955069604 -0.049990919959604974  0.
-0.0733738711427306 -0.056157647037043935  0.
-0.08310780298968631 -0.06294719395944365  0.
-0.09319354858860023 -0.0703169629926899  0.
0.10729806528185523 -0.09435084418626641  0.
0.09711920869586664 -0.08659504752329095  0.
0.08717534088565174 -0.07926693187635381  0.
0.07758936989407937 -0.07240660459070863  0.
0.0684192334576107 -0.06606683291166615  0.
0.059668692791359265 -0.06029482158504814  0.
0.051306401006664726 -0.05512402056971151  0.
0.043282902703845216 -0.05057389943641822  0.
0.035541674883285405 -0.046653151728674194  0.
0.028025101505839735 -0.04336377460857327  0.
0.020677141559408904 -0.04070468003016275  0.
0.013443963409637204 -0.03867441722876498  0.
0.00627359186703306 -0.037273097372920484  0.
-0.0008849652751162525 -0.03650363537793593  0.
-0.008082886928111757 -0.036372429815933034  0.
-0.0153727187568611 -0.03688955244233372  0.
-0.022809626802608233 -0.03806840707200557  0.
-0.03045242718375258 -0.03992476384040398  0.
-0.03836418272371379 -0.04247497724208246  0.
-0.04661170542118167 -0.045733122690768326  0.
-0.05526303336802395 -0.04970696907403375  0.
-0.06438097718875622 -0.054393073251245934  0.
-0.07401064555359202 -0.05977280548535015  0.
-0.08415947163380187 -0.06581318758291498  0.
-0.09477334584457084 -0.07247921725388004  0.
-0.10572328555189255 -0.07976271593333688  0.
0.11968159990253947 -0.1060955570556163  0.
0.10871013912339131 -0.09833508558168012  0.
0.09796071579137434 -0.091023700219525  0.
0.0875222356874093 -0.08418413707826787  0.
0.0774435694394544 -0.07785287300996144  0.
0.06773516311747535 -0.07206754176879204  0.
0.058378376048998065 -0.06685943935556392  0.
0.04933631298742728 -0.06225120885709121  0.
0.040562226372566595 -0.05825755425025581  0.
0.03200496843487825 -0.05488731365617543  0.
0.023612096527556147 -0.05214581903366823  0.
0.015331190910531247 -0.05003691201434996  0.
0.007110190482265288 -0.04856451665484313  0.
-0.0011028726483556434 -0.04773370981111058  0.
-0.009360504118404899 -0.04755130924785368  0.
-0.01771639163461711 -0.048026001893877505  0.
-0.026226093332304294 -0.04916796830920468  0.
-0.03494739994468789 -0.05098796203242815  0.
-0.04394014413753999 -0.05349576988109867  0.
-0.053264860247655185 -0.0566980164796842  0.
-0.0629796581632765 -0.06059551656553152  0.
-0.07313418271005127 -0.06518080079271822  0.
-0.08376002382279091 -0.07043738429986146  0.
-0.09485807719735734 -0.07634342985248721  0.
-0.1063870724614649 -0.08288291153752768  0.
-0.11826303854648897 -0.09006523011476472  0.
0.13195994195418398 -0.11876206359577016  0.
0.12015358874817313 -0.11099685605926812  0.
0.10857004277224858 -0.1036979019818091  0.
0.09727061539545945 -0.09687787135056533  0.
0.08629216271961725 -0.09056199134403617  0.
0.07564492846631768 -0.08477963911155059  0.
0.06531634927506622 -0.07955824937480292  0.
0.055277494190167586 -0.07492048413231495  0.
0.04548892848021215 -0.07088362833687072  0.
0.03590512895065751 -0.06746034520881755  0.
0.02647744064360094 -0.0646600077146578  0.
0.017155648899218275 -0.062490022738222586  0.
0.007888727076299363 -0.06095697234795975  0.
-0.0013749786829139233 -0.06006743161369913  0.
-0.01068793428209405 -0.05982841906949112  0.
-0.02010359678565571 -0.06024747275317182  0.
-0.02967663060694014 -0.06133231034543863  0.
-0.03946276573141422 -0.06309007535314669  0.
-0.04951812035663623 -0.06552618171253126  0.
-0.05989750500150782 -0.06864284073345354  0.
-0.0706513927401231 -0.07243760112176656  0.
-0.08182096582587041 -0.07690250759493443  0.
-0.09343143762498539 -0.08202507488713966  0.
-0.1054847679544817 -0.08779257839498293  0.
-0.1179553102630774 -0.09420092964803088  0.
-0.1307944141824871 -0.10126744663962979  0.
0.1441103537997965 -0.13238454980974546  0.
0.1314412793662019 -0.12461505779978602  0.
0.11900210682640742 -0.11732509446024979  0.
0.1068324903139835 -0.1105215764329732  0.
0.09495730864430894 -0.10422212073608449  0.
0.08338327520583985 -0.09844950652033599  0.
0.07209976485914327 -0.0932270137903971  0.
0.061082362949177356 -0.08857574222115631  0.
0.050296690779561996 -0.08451344088383983  0.
0.03970171233901397 -0.08105446916305337  0.
0.029252275767062706 -0.07821039381109837  0.
0.018900663967921193 -0.07599073957400777  0.
0.008597537870775787 -0.07440372854042032  0.
-0.001707585971628695 -0.07345684014375688  0.
-0.012066191673150803 -0.07315712016715377  0.
-0.02253058396729757 -0.07351121873055828  0.
-0.033153755812306604 -0.07452512059808786  0.
-0.04398891553659555 -0.07620359932577142  0.
-0.055088569752252826 -0.07854945317896961  0.
-0.06650280000112661 -0.08156265745520375  0.
-0.07827666737120652 -0.08523976716667246  0.
-0.09044648483498664 -0.08957405492439514  0.
-0.10303552573287066 -0.09455718187285168  0.
-0.11605029646606954 -0.10018315860453439  0.
-0.12947996390699804 -0.10645490773840298  0.
-0.14330245048312246 -0.11339234051404726  0.
0.1561128060990427 -0.14698228528530938  0.
0.14256348755938403 -0.13920890084460907  0.
0.1292535602459264 -0.13192500819753958  0.
0.1162059474873587 -0.12513431937231276  0.
0.10343479023901776 -0.11884934479289558  0.
0.09094195601390982 -0.11308778892149446  0.
0.07871636350143103 -0.10786908494311942  0.
0.06673573620641611 -0.10321211478365097  0.
0.05496893347320513 -0.09913388241765453  0.
0.043378284879864046 -0.09564905127248964  0.
0.03192164095982095 -0.09277006072000105  0.
0.020553755852219746 -0.09050745181092151  0.
0.009227275850689515 -0.08887027946727546  0.
-0.0021066215430178377 -0.08786645004819563  0.
-0.013497870335535617 -0.08750290754086752  0.
-0.024997087806435725 -0.08778564724920213  0.
-0.03665521603361886 -0.08871952495574045  0.
-0.048522865582861514 -0.09030790879420926  0.
-0.060649335298602766 -0.09255224816333545  0.
-0.07308104339537402 -0.09545169708195624  0.
-0.08585947680264572 -0.09900307816709333  0.
-0.09901855949232621 -0.10320152379967695  0.
-0.1125821208276148 -0.10804228605703975  0.
-0.12656236519345151 -0.11352401691505162  0.
-0.14096111226806712 -0.11965340928571822  0.
-0.1557757623230815 -0.12645015521021113  0.
0.1679499677506485 -0.16256439255427152  0.
0.1535102884403285 -0.15478720327584686  0.
0.13931983894055963 -0.1475067492772199  0.
0.12538871686695702 -0.14072502844514045  0.
0.11172192628285142 -0.1344511326076363  0.
0.09831624987008128 -0.1286989300235711  0.
0.08515889483796107 -0.12348452687806712  0.
0.07222818819442169 -0.1188244348491191  0.
0.059494876053719635 -0.11473429609380459  0.
0.04692368583054928 -0.11122823230413124  0.
0.034474913332931456 -0.10831867541318088  0.
0.02210557746277558 -0.10601640413266783  0.
0.009770361788627002 -0.1043307142766355  0.
-0.002577683549219911 -0.1032695836295183  0.
-0.014986668297830205 -0.10283976240127732  0.
-0.02750528402064769 -0.10304677340777389  0.
-0.04018232335379267 -0.10389479314867049  0.
-0.05306595168952239 -0.10538646670680543  0.
-0.06620277402296937 -0.10752272833679098  0.
-0.0796364996093045 -0.11030274484287181  0.
-0.0934064180307448 -0.11372420325803186  0.
-0.1075456409559624 -0.11778415074406717  0.
-0.1220797764112432 -0.12248066516773233  0.
-0.1370266623728154 -0.12781540831102273  0.
-0.15239831871935056 -0.13379679873650938  0.
-0.1682061477257197 -0.14044294795329756  0.
0.17960703775048162 -0.17913310341412508  0.
0.16427223788953893 -0.17135181972827904  0.
0.14919585016491746 -0.16407231892908647  0.
0.1343781739451914 -0.15729574121585635  0.
0.1198166621824545 -0.1510288820006874  0.
0.10550330853517749 -0.1452827263934886  0.
0.09142305795868091 -0.14007060004675567  0.
0.07755391644045603 -0.13540674658715274  0.
0.06386757028929636 -0.13130519447451128  0.
0.05033037232050161 -0.12777905755016605  0.
0.036904535977892006 -0.12484021603445197  0.
0.02354905410109576 -0.12249917274663638  0.
0.010220544318703057 -0.12076505866412933  0.
-0.0031260535688724406 -0.1196456745784075  0.
-0.016536962327835192 -0.11914751287070141  0.
-0.03005891735177072 -0.11927575147967949  0.
-0.04373864271673898 -0.12003419272802675  0.
-0.057622126510230194 -0.12142519932652544  0.
-0.0717537937707132 -0.12344968748952113  0.
-0.08617541966967993 -0.12610726570149874  0.
-0.10092505634512709 -0.12939667920496611  0.
-0.11603592010264882 -0.1333166703257894  0.
-0.13153584295879367 -0.13786739774591714  0.
-0.14744766879372848 -0.1430523427720545  0.
-0.1637913347527499 -0.14888041516031872  0.
-0.18058813676946223 -0.15536760447865944  0.
0.1910713433412604 -0.1966857871817812  0.
0.17484056817439675 -0.1888997540676534  0.
0.1588762992949762 -0.18161879294860278  0.
0.14317135725276645 -0.174843662610618  0.
0.12771706199165853 -0.16857960105046227  0.
0.11250114520259556 -0.16283542184676839  0.
0.09750615270774712 -0.15762216638661267  0.
0.08270926106972773 -0.15295202524657808  0.
0.06808246755362835 -0.14883737426902352  0.
0.053593165497038735 -0.1452901030738683  0.
0.03920502673720624 -0.1423212354541052  0.
0.024878703546084395 -0.13994068532031365  0.
0.01057255777210789 -0.13815715954196578  0.
-0.0037566879902776826 -0.13697811859702735  0.
-0.018153445651178882 -0.13640975275811237  0.
-0.032662596249669926 -0.1364569741615539  0.
-0.047328977625890736 -0.13712339744858765  0.
-0.062196709346803866 -0.13841135755181921  0.
-0.0773084955372306 -0.14032200928485541  0.
-0.09270476698587486 -0.14285556918421763  0.
-0.10842296594413221 -0.14601180906546748  0.
-0.12449688318414921 -0.14979084389805677  0.
-0.14095657977900145 -0.15419427706094477  0.
-0.1578290777535326 -0.1592265798927101  0.
-0.17514028777522025 -0.16489644783718868  0.
-0.19291837681069707 -0.17121765441850198  0.
0.20233207374529735 -0.21521649410847127  0.
0.18520733125987118 -0.20742474077024853  0.
0.16835597916194847 -0.20013994492282242  0.
0.15176512484181215 -0.19336273400335394  0.
0.13542115941746702 -0.1870972711292701  0.
0.11930814698840281 -0.18135072086767673  0.
0.1034063252163285 -0.17613226113513  0.
0.08769180338868106 -0.17145228016189265  0.
0.0721364940176817 -0.16732157775143963  0.
0.05670840564196878 -0.1637507588475094  0.
0.041372289177649416 -0.16074984792050145  0.
0.026090153496665238 -0.15832799970723946  0.
0.01082187626228056 -0.15649334539429902  0.
-0.004474213500266265 -0.15525290503827632  0.
-0.019840874401462923 -0.154612536047178  0.
-0.03532130911584118 -0.15457692552424113  0.
-0.050958697988592504 -0.15514959811624227  0.
-0.06679559731653022 -0.15633298318566816  0.
-0.0828733740002825 -0.15812857097981037  0.
-0.09923154187271499 -0.16053719456771612  0.
-0.1159073162045117 -0.16355950888260407  0.
-0.13293524798703937 -0.16719666642391334  0.
-0.15034740811095315 -0.17145120917000517  0.
-0.16817415920759743 -0.17632804153634385  0.
-0.1864458131881714 -0.18183527418362289  0.
-0.20519521914494085 -0.187984598095289  0.
0.21337996329012487 -0.23471694696766185  0.
0.19536537485590946 -0.22691824992967333  0.
0.17762988942680924 -0.21962727585736225  0.
0.1601562406815872 -0.21284463813975152  0.
0.14292688336080947 -0.206573737535071  0.
0.12592279185901137 -0.20082046968422784  0.
0.10912209961353583 -0.19559249281342794  0.
0.09249977850447222 -0.1908986395535797  0.
0.0760274246214311 -0.1867482656020375  0.
0.05967336299665306 -0.18315072211731362  0.
0.04340312143630823 -0.18011499493859634  0.
0.027179792569763078 -0.17764940566255724  0.
0.010964534411974279 -0.1757614331893959  0.
-0.005282924574424042 -0.17445760161742518  0.
-0.021603886684848767 -0.17374341391465212  0.
-0.03804008504814025 -0.17362334537112475  0.
-0.054633281733276806 -0.1741008667498619  0.
-0.07142474792224927 -0.17517853646702455  0.
-0.08845482023829568 -0.1768581785287169  0.
-0.10576239307285185 -0.17914116494318874  0.
-0.12338466815792393 -0.18202884700546604  0.
-0.1413569742791915 -0.18552310991097923  0.
-0.1597130799586906 -0.1896270493263277  0.
-0.17848593160044118 -0.1943456419084981  0.
-0.19770901349098985 -0.19968624793452333  0.
-0.21741829500282234 -0.20565870949240933  0.
0.22420701336117813 -0.25517721479234096  0.
0.2053082729591028 -0.24737016200083353  0.
0.1866932909003629 -0.24007070190984756  0.
0.16834144129746162 -0.23327947556123396  0.
0.15023204554258077 -0.2269993219901869  0.
0.13234351099846384 -0.22123514310839074  0.
0.11465211538456453 -0.21599335228795244  0.
0.09713172117091909 -0.21128145088377256  0.
0.07975348713472573 -0.20710750206255973  0.
0.062485852064691386 -0.20347968279258677  0.
0.045294886350252674 -0.2004059631777967  0.
0.028144531078306043 -0.1978938191674383  0.
0.010997001189021487 -0.19595005033194549  0.
-0.00618678712342598 -0.19458065931605048  0.
-0.023446887616876785 -0.19379077943253417  0.
-0.04082377815769543 -0.19358466933442114  0.
-0.05835803069770942 -0.19396574259093569  0.
-0.07608987227623114 -0.19493666790307798  0.
-0.09405884736756008 -0.19649954636105602  0.
-0.11230343055743323 -0.19865617178848996  0.
-0.130860912437885 -0.20140840052918724  0.
-0.14976732684320487 -0.2047585923274651  0.
-0.1690578101963224 -0.2087101131384526  0.
-0.18876725135730119 -0.21326778709140798  0.
-0.20893137103052245 -0.21843817817309763  0.
-0.22958816158140896 -0.22422954098903194  0.
0.23480632196801826 -0.27658630359448033  0.
0.21503030021749078 -0.26876935273770997  0.
0.1955417763362 -0.261459145191655  0.
0.17631753297973976 -0.2546563501508352  0.
0.15733440022335984 -0.24836337245746368  0.
0.13856867188273028 -0.2425843192745471  0.
0.11999502416263753 -0.23732457601388643  0.
0.10158629082345966 -0.23259050777476692  0.
0.08331314443460106 -0.22838903626506143  0.
0.0651440051595601 -0.22472726549051322  0.
0.04704530829145418 -0.2216122067779621  0.
0.028981646780385274 -0.21905051456339059  0.
0.010916091429624361 -0.2170483129947553  0.
-0.007189454299130069 -0.21561107714173702  0.
-0.02537399611227731 -0.21474356005644066  0.
-0.043676959695127596 -0.21444978846812693  0.
-0.06213793255583258 -0.21473309268741345  0.
-0.08079629934621234 -0.21559620396751594  0.
-0.09969099310503926 -0.2170414179488236  0.
-0.11886019786777179 -0.21907082206760212  0.
-0.13834132696361529 -0.22168660179453142  0.
-0.158171005893501 -0.22489138249775448  0.
-0.17838543157596642 -0.22868859703368966  0.
-0.19902091467953023 -0.23308278366780708  0.
-0.22011471477000455 -0.2380797294017786  0.
-0.24170608870819024 -0.2436863521799958  0.
0.24517181874412436 -0.29893234177476585  0.
0.22452627944608294 -0.2911038711233454  0.
0.20417120564560465 -0.2837807137865725  0.
0.18408137060582566 -0.27696354691277597  0.
0.16423162256747997 -0.2706544214498263  0.
0.1445965251547824 -0.26485679387195077  0.
0.1251493923972043 -0.2595751915294568  0.
0.10586213415364384 -0.2548150081924442  0.
0.0867049326977664 -0.2505821642024349  0.
0.06764610741571696 -0.24688279706364497  0.
0.04865232644597012 -0.2437230320124218  0.
0.02968867436407409 -0.24110874584989242  0.
0.010718903577992532 -0.2390454091664307  0.
-0.00829427567310032 -0.23753797523364018  0.
-0.02738900395099488 -0.2365908097861808  0.
-0.0466038376549099 -0.2362076874770408  0.
-0.06597755829677664 -0.2363918183005242  0.
-0.08554887303800918 -0.23714593582138693  0.
-0.10535623850451901 -0.23847244023521108  0.
-0.1254376288204193 -0.24037358945894696  0.
-0.1458305747976399 -0.24285174616554936  0.
-0.16657216952508033 -0.24590963755073447  0.
-0.18769940346458286 -0.24955062054095004  0.
-0.2092495996538259 -0.25377887367800245  0.
-0.23126104664867012 -0.25859945746487706  0.
-0.253773751679642 -0.26401817487690626  0.
0.2552981575991078 -0.32220289015909637  0.
0.23379154806470065 -0.3143612410281536  0.
0.2125777329417166 -0.3070230027660283  0.
0.19162991793929163 -0.300188831998764  0.
0.17092137205836969 -0.293860475758214  0.
0.15042524734470053 -0.28804084451083745  0.
0.1301137106018817 -0.28273374012322355  0.
0.10995785943636019 -0.2779437220287969  0.
0.08992740808484584 -0.2736758336620273  0.
0.0699905280534166 -0.2699353483868935  0.
0.050114024147096224 -0.2667275823703088  0.
0.03026334465846313 -0.26405768738913726  0.
0.010402776865937147 -0.26193051160534264  0.
-0.009504318926751064 -0.26035049912661423  0.
-0.029495378586190873 -0.2593216242035684  0.
-0.04960824812531221 -0.2588473882406871  0.
-0.06988105365734334 -0.25893084066584904  0.
-0.0903519572883349 -0.25957465502259913  0.
-0.1110590390782742 -0.2607812494140239  0.
-0.13204011154386724 -0.2625529423422225  0.
-0.15333279795166724 -0.2648921478755415  0.
-0.17497454091111384 -0.2678015696766558  0.
-0.19700290335728565 -0.27128439038573793  0.
-0.21945590691294972 -0.2753443922307706  0.
-0.2423725032961985 -0.27998597069309256  0.
-0.26579310960083474 -0.2852139990592325  0.
0.26518064343194425 -0.3463852261951388  0.
0.24282193684431352 -0.33852873670002614  0.
0.22075783093180962 -0.33117336817143395  0.
0.1989603012271276 -0.3243197262973478  0.
0.17740135481985017 -0.3179692850141018  0.
0.15605299410216847 -0.31212448528453857  0.
0.13488642609378776 -0.3067885068285859  0.
0.1138720447953329 -0.30196518718918447  0.
0.09297913284769113 -0.2976588004491396  0.
0.07217569070285523 -0.2938738493031489  0.
0.05142859137429168 -0.29061491554933716  0.
0.0307035466825679 -0.2878864804580138  0.
0.009965258096244923 -0.2856928045928913  0.
-0.010822396327398235 -0.2840378391102752  0.
-0.03169628442064041 -0.2829251650577095  0.
-0.05269367618911531 -0.28235799083636137  0.
-0.07385216680403908 -0.2823391666756323  0.
-0.0952094783229217 -0.28287124776014555  0.
-0.11680338765310369 -0.28395659249334004  0.
-0.13867157332368565 -0.2855974865225983  0.
-0.16085171835094295 -0.28779629429983766  0.
-0.18338151099700198 -0.29055560185343654  0.
-0.2062989099627054 -0.293878351045555  0.
-0.2296424002445284 -0.2977679135027453  0.
-0.25345133930383973 -0.3022280805938708  0.
-0.2777663341249139 -0.30726294518664293  0.
0.2748150072890335 -0.371466143061121  0.
0.2516135948539928 -0.36359317602149704  0.
0.22870816615316222 -0.35621871869241484  0.
0.2060697243272316 -0.3493432974623874  0.
0.18366926494790306 -0.34296813214482735  0.
0.16147785457638894 -0.33709525059564427  0.
0.13946590085202162 -0.33172729102683723  0.
0.11760319470410484 -0.32686746069511247  0.
0.0958586300479402 -0.32251935558247846  0.
0.07420002907348777 -0.3186867903344446  0.
0.05259428566505862 -0.31537368124292275  0.
0.031007298129513503 -0.3125838915493989  0.
0.009404084872878504 -0.31032112938302914  0.
-0.012251067487250307 -0.30858887069372326  0.
-0.03399457246498306 -0.3073903037235651  0.
-0.05586323532094894 -0.30672832691617896  0.
-0.07789422146563346 -0.3066055569659941  0.
-0.10012489538967596 -0.3070243794920814  0.
-0.12259278474567757 -0.3079870270410387  0.
-0.14533544902530154 -0.30949567575199227  0.
-0.16839059767579725 -0.311552561326177  0.
-0.19179607789632652 -0.31416008268281737  0.
-0.21559010684036045 -0.31732089676615904  0.
-0.23981146011296237 -0.3210379627669061  0.
-0.2644997230735678 -0.3253145224017065  0.
-0.28969555614307574 -0.3301540037535493  0.
0.28419750999240545 -0.3974324769743583  0.
0.26016310864533126 -0.389541440131901  0.
0.23642573203561537 -0.382146032658362  0.
0.2129556103989488 -0.37524667668747624  0.
0.18972292551620656 -0.3688443495338755  0.
0.16669798208614034 -0.3629407079628725  0.
0.14385052396094594 -0.3575379117801245  0.
0.12114982921536159 -0.3526386122469426  0.
0.09856444757436897 -0.34824580370210373  0.
0.0760620261235609 -0.3443626842077884  0.
0.05360944818647671 -0.3409925660296975  0.
0.03117274046264727 -0.338138742752541  0.
0.00871716137993597 -0.3358044036624021  0.
-0.013792682246755839 -0.3339925675481939  0.
-0.036392842412051395 -0.33270603206982863  0.
-0.05911975016024972 -0.33194737218786835  0.
-0.0820102223058129 -0.3317189422444886  0.
-0.10510133010714322 -0.3320229154352821  0.
-0.1284303916162038 -0.332861344156354  0.
-0.1520348548626927 -0.3342362339520132  0.
-0.1759524255111285 -0.3361496310723075  0.
-0.2002210400586008 -0.33860369680672164  0.
-0.22487906994474074 -0.34160077442804315  0.
-0.24996545680443413 -0.34514341512933633  0.
-0.27551989374295227 -0.3492343566573569  0.
-0.3015830128565627 -0.35387644970690957  0.
0.2933246988997527 -0.42427067545142105  0.
0.2684672942044731 -0.41636003821161616  0.
0.2439076803983146 -0.40894192181708694  0.
0.219615469363143 -0.4020166232408075  0.
0.19556018599267597 -0.3955848847499624  0.
0.1717115145026812 -0.38964802375542656  0.
0.14803864875666273 -0.38420777127709643  0.
0.12451043339509721 -0.37926628272536844  0.
0.10109511738638687 -0.37482601435364754  0.
0.07776018236416174 -0.37088960858553066  0.
0.054472481511289014 -0.3674598274292567  0.
0.031198127083179147 -0.3645394382244077  0.
0.007902557801327903 -0.3621311424914772  0.
-0.015449369574370302 -0.3602375195149954  0.
-0.038893419978241646 -0.35886098015841933  0.
-0.0624657228096972 -0.35800376593659206  0.
-0.0862028106671557 -0.3576679458384083  0.
-0.11014151149081973 -0.3578554461769556  0.
-0.13431896305528498 -0.3585680960642286  0.