<?xml version="1.0"?>
<VTKFile type="UnstructuredGrid" version="0.1" byte_order="LittleEndian" compressor="vtkZLibDataCompressor">
<UnstructuredGrid>
<Piece NumberOfPoints="1105" NumberOfCells="2048">
<PointData>
<DataArray type="Float64" Name="displacement" NumberOfComponents="3" format="ascii" >
0.0 -0.0018  0.
-0.000117919921875 -0.001378125  0.
-0.000188671875 -0.0010125  0.
-0.000218994140625 -0.000703125  0.
-0.000215625 -0.00045  0.
-0.000185302734375 -0.000253125  0.
-0.000134765625 -0.0001125  0.
-7.0751953125e-05 -2.8125e-05  0.
0.0 0.0  0.
7.0751953125e-05 -2.8125e-05  0.
0.000134765625 -0.0001125  0.
0.000185302734375 -0.000253125  0.
0.000215625 -0.00045  0.
0.000218994140625 -0.000703125  0.
0.000188671875 -0.0010125  0.
0.000117919921875 -0.001378125  0.
0.0 -0.0018  0.
0.0014596639239067078 -0.002024284421054634  0.
0.0011633761882741147 -0.0016150543967070202  0.
0.0009106253326434416 -0.0012581857843827727  0.
0.0006974827096299096 -0.0009555028655576337  0.
0.0005177309397290795 -0.0007075447835054895  0.
0.0003647868549114767 -0.0005145377788316449  0.
0.00023197802209553908 -0.0003765941927315497  0.
0.0001126027901143562 -0.0002937727743058648  0.
-5.148148157606593e-08 -0.00026610137416385515  0.
-0.0001127008651351257 -0.00029358569746851303  0.
-0.00023206005472730127 -0.0003762108825346521  0.
-0.00036483694923500825 -0.0005139371085431208  0.
-0.0005177230993590656 -0.0007066869143084459  0.
-0.0006973722342827174 -0.0009543170191112787  0.
-0.0009103431260199298 -0.0012565579047235976  0.
-0.0011629132862375133 -0.001612889115038075  0.
-0.0014602500358589035 -0.0020223598547702976  0.
0.002899484608322137 -0.0024365951928161855  0.
0.0024228975549221055 -0.002034190302235386  0.
0.001991180081938758 -0.0016847900542601435  0.
0.0015984758585933072 -0.0013883648306273317  0.
0.0012387928411511108 -0.0011453974449451478  0.
0.0009057117140739275 -0.0009561815177939655  0.
0.0005926484482560218 -0.0008208849884398478  0.
0.0002929546085695545 -0.0007396020350154649  0.
-4.472386244868955e-08 -0.0007123788645278178  0.
-0.0002930336185387738 -0.000739225126803601  0.
-0.0005926942957055762 -0.0008201167338636714  0.
-0.0009056961134241322 -0.0009549920301026454  0.
-0.0012386792267811673 -0.0011437412869205424  0.
-0.0015982242827058703 -0.001386189117474648  0.
-0.001990788617502793 -0.0016820734779770005  0.
-0.002422557870646902 -0.0020310472163132  0.
-0.0028990838734855935 -0.0024328261536946593  0.
0.004316851028663937 -0.0030294824556620532  0.
0.0036624976335022414 -0.0026336097025290344  0.
0.003053836814368159 -0.0022903595051624107  0.
0.002484367400064175 -0.0019995224694656704  0.
0.0019477496021241976 -0.0017612025745185151  0.
0.0014375694998874557 -0.001575594347370265  0.
0.0009472938009077256 -0.0014428477309801793  0.
0.00047031975631262144 -0.0013630585650029746  0.
1.0332558197473263e-08 -0.001336277216200391  0.
-0.0004702849911941908 -0.0013625153964648697  0.
-0.0009472158154872958 -0.001441748889549003  0.
-0.0014374173631808015 -0.001573916773014227  0.
-0.0019474937011797347 -0.0017589186181893497  0.
-0.0024839928993054842 -0.0019966132342298043  0.
-0.003053368194287121 -0.002286828532924689  0.
-0.0036619230703002757 -0.002629407432441564  0.
-0.004315791331732118 -0.003024345311453884  0.
0.005711194730985344 -0.0037989753163891627  0.
0.0048821036592215615 -0.003409621103845428  0.
0.004099117624543428 -0.0030721515421115032  0.
0.0033555421201247266 -0.0027864227036941444  0.
0.0026448370542628847 -0.0025524184844506505  0.
0.0019604980681409284 -0.002370212352223587  0.
0.0012959877378434603 -0.002239897040200115  0.
0.0006447253610232822 -0.002161545151047648  0.
1.0125973248854124e-07 -0.0021351990170691733  0.
-0.0006445077766535875 -0.002160869819481335  0.
-0.0012957252995443901 -0.0022385385884020966  0.
-0.0019601629477725385 -0.0023681575626602258  0.
-0.002644407488310198 -0.002549653009661303  0.
-0.0033550065139061505 -0.002782932925886937  0.
-0.004098455770902499 -0.0030679064603281354  0.
-0.004881204628827875 -0.0034045262776281086  0.
-0.0057097472663623855 -0.0037928622070621085  0.
0.0070823823395057516 -0.00474172712717121  0.
0.0060816118820738105 -0.004358887082331219  0.
0.005127136592246694 -0.004027086795045233  0.
0.00421222215287608 -0.0037462485729373375  0.
0.0033302428958089064 -0.003516336260458459  0.
0.0024746258233229223 -0.0033373636300160574  0.
0.001638805251580534 -0.003209371710864964  0.
0.0008162012003035643 -0.003132402792673915  0.
2.1735546076797174e-07 -0.00310648513262484  0.
-0.0008157522234844558 -0.0031316270547647705  0.
-0.0016383143439016926 -0.003207815914301316  0.
-0.0024740679852352514 -0.0033350199332405988  0.
-0.0033295965054535898 -0.0035131931053850917  0.
-0.004211462607626811 -0.003742284957579637  0.
-0.005126211844008376 -0.004022257992174522  0.
-0.006080400722730743 -0.004353114517776368  0.
-0.007080689071801106 -0.0047349244778533105  0.
0.008430404152732354 -0.00585461946363284  0.
0.007260969201712752 -0.005478286594117292  0.
0.006137907161525785 -0.005152118583901766  0.
0.0050544947380700865 -0.004876079089697927  0.
0.004004077381308365 -0.004650138110913097  0.
0.002980044936665041 -0.004474287701223466  0.
0.001975806485174265 -0.00434853879284038  0.
0.0009847731525153079 -0.004272909552486017  0.
3.5113749233971115e-07 -0.004247414505526532  0.
-0.0009840578433166177 -0.004272058171068008  0.
-0.0019750526388779186 -0.004346833026312163  0.
-0.0029792280966598355 -0.004471720902142234  0.
-0.00400317189336553 -0.0046466975882872436  0.
-0.0050534654483580035 -0.004871741021346849  0.
-0.006136694050089737 -0.00514684317838344  0.
-0.007259476087992565 -0.005472023304738562  0.
-0.00842852634198893 -0.0058473322056851575  0.
0.009755284398339531 -0.007134644873377116  0.
0.00842015490229229 -0.006764811730263229  0.
0.007131422500843827 -0.0064442630070862756  0.
0.005882387787666527 -0.00617298466382768  0.
0.004666392151918464 -0.005950956533307031  0.
0.003476808978434454 -0.005778165545763097  0.
0.0023070310622615633 -0.005654608798071286  0.
0.0011504596365259424 -0.005580289977457523  0.
4.977453444433244e-07 -0.005555213735826011  0.
-0.001149452027100298 -0.005579381287368864  0.
-0.0023059870814189217 -0.005652788550334051  0.
-0.003475703601871489 -0.005775426982278027  0.
-0.004665196656734655 -0.005947286926641145  0.
-0.0058810640008481055 -0.00616836312526195  0.
-0.007129916959079789 -0.0064386613264108775  0.
-0.008418402726878643 -0.006758202808996822  0.
-0.009753239900602532 -0.007127019337673197  0.
0.01105705215969103 -0.008578855225856236  0.
0.009559164439309906 -0.008215515336143203  0.
0.00810767463106187 -0.007900581287956466  0.
0.006695906494197315 -0.0076340498675211135  0.
0.005317206738677814 -0.007415908789025752  0.
0.0039649434299020335 -0.007246145944166345  0.
0.002632500446556341 -0.007124753621230202  0.
0.0013132712136479127 -0.0070517285511235515  0.
6.537816189829954e-07 -0.007027069796812124  0.
-0.0013119520651739562 -0.007050776481549153  0.
-0.0026311461391802936 -0.007122846636807841  0.
-0.0039635287572969405 -0.007243277671391552  0.
-0.005315702674293605 -0.0074120684050484765  0.
-0.006694277693407683 -0.0076292221313817065  0.
-0.008105879688056093 -0.007894749428541297  0.
-0.009557164992810572 -0.008208668108044947  0.
-0.01105483712669037 -0.008570995954704666  0.
0.012335732408440839 -0.010184335121335956  0.
0.010678000128591188 -0.009827483431750437  0.
0.009066658043351402 -0.009518162525515923  0.
0.007495048351462939 -0.009256373762226645  0.
0.005956525454110004 -0.009042110117198496  0.
0.00444445731435224 -0.008875362112519517  0.
0.0029522235696652884 -0.008756121502642971  0.
0.0014732122555655511 -0.00868438261865077  0.
8.165117966839821e-07 -0.008660142128898407  0.
-0.001471568052405801 -0.008683398253282248  0.
-0.0029505453525720763 -0.008754150286678686  0.
-0.004442720724890195 -0.008872398878412029  0.
-0.005954703560655527 -0.009038147061047098  0.
-0.0074931115786615 -0.009251401550529824  0.
-0.00906457733026708 -0.009512173271150082  0.
-0.010675756341717094 -0.009820475383171684  0.
-0.012333333119513823 -0.010176316719585864  0.
0.013591344091676389 -0.011948187293601004  0.
0.011776666431366063 -0.011597820123551405  0.
0.010008369545536926 -0.011294111996860012  0.
0.008279808977502181 -0.011037065699098665  0.
0.00658434630280579 -0.01082667740658273  0.
0.004915351376348566 -0.010662940280984528  0.
0.0032662021708233526 -0.01054584724378632  0.
0.001630283227941638 -0.010475392558258701  0.
9.83567000741056e-07 -0.010451572405240346  0.
-0.0016283054381562064 -0.010474384917758693  0.
-0.0032641920869829833 -0.010543830145680277  0.
-0.004913286484010902 -0.01065991023242131  0.
-0.006582203157414163 -0.010822629792472827  0.
-0.008277564512796537 -0.011031996138149537  0.
-0.010006005081210502 -0.011288018651439016  0.
-0.011774175503670723 -0.01159070633900915  0.
-0.013588743229052961 -0.011940062800654455  0.
0.014823900610716333 -0.013867524376469377  0.
0.012855167813029669 -0.013523639186598458  0.
0.010932807466755566 -0.013225543925118363  0.
0.009050184195156229 -0.012973241370087298  0.
0.007200665282186972 -0.012766729521941215  0.
0.005377622883815614 -0.01260600368207971  0.
0.0035744345578496866 -0.012491058387964018  0.
0.0017844826366289774 -0.012421888813470394  0.
1.1529337913679728e-06 -0.012398491585093489  0.
-0.0017821668673185373 -0.012420865172844133  0.
-0.003572088989395126 -0.01248901007015849  0.
-0.005375227520027983 -0.012602928900440943  0.
-0.00719820065553407 -0.012762626422800908  0.
-0.00904763325094317 -0.0129681092066118  0.
-0.010930159361696591 -0.013219384567007776  0.
-0.012852423772359484 -0.013516458318705156  0.
-0.014821080494195072 -0.01385933124405681  0.
0.016033410957663002 -0.015939464225757496  0.
0.013913507931820866 -0.015602059350069902  0.
0.01183997098895584 -0.0153095772003435  0.
0.009806170630455613 -0.015062020004354044  0.
0.007805478285566884 -0.014859386742198088  0.
0.005831268140856057 -0.01470167429148061  0.
0.003876917844795617 -0.01458887871188886  0.
0.0019358083285277352 -0.014520996343296035  0.
1.323012547291134e-06 -0.014498024589591277  0.
-0.0019331533766756756 -0.014519962398638949  0.
-0.0038742362391439075 -0.01458681050543838  0.
-0.005828542717292131 -0.01469857148273215  0.
-0.0078026934486472915 -0.0148552495629436  0.
-0.00980331432006445 -0.015056850095090234  0.
-0.011837037847993412 -0.015303378436875603  0.
-0.013910503409566318 -0.015594838143863542  0.
-0.01603035512647956 -0.015931228627944913  0.
0.017219880874523988 -0.018161127280590036  0.
0.014951689464516235 -0.017830201684491592  0.
0.012729859716595068 -0.01754333293459368  0.
0.01054776575654514 -0.01730052259618398  0.
0.00839878182477074 -0.017101770142512053  0.
0.006276283652107204 -0.016947073549231494  0.
0.004173649108391707 -0.016836430115146992  0.
0.002084258212170409 -0.016769837264099287  0.
1.4926397595448106e-06 -0.01674729319112598  0.
-0.0020812651262139535 -0.016768797301435514  0.
-0.004170632891960997 -0.016834350435605556  0.
-0.006273229994963402 -0.01694395487589521  0.
-0.00839567858410421 -0.01709761409841702  0.
-0.010544604752905948 -0.01729533219999032  0.
-0.012726639190630874 -0.017537112927284104  0.
-0.014948416819310728 -0.017822958324008875  0.
-0.01721657477404888 -0.01815286724328182  0.
0.018383313827507044 -0.02052963510683838  0.
0.015969714204034903 -0.020205188191516933  0.
0.013602473435319978 -0.019923933120326486  0.
0.011274967758765794 -0.019685870868732518  0.
0.008980573203958711 -0.019491001138934514  0.
0.006712666559629023 -0.01933932264279175  0.
0.004464625884699063 -0.01923083360849345  0.
0.0022298305759245194 -0.019165532337063928  0.
1.6610562951267579e-06 -0.019143417689791394  0.
-0.0022265018294897565 -0.01916448943759591  0.
-0.004461277620141173 -0.01922874843560644  0.
-0.00670928714466911 -0.019336196597456123  0.
-0.00897715340794469 -0.019486836640621664  0.
-0.011271502277137434 -0.01968067157300732  0.
-0.013598962708435946 -0.019917703917068593  0.
-0.015966166178743184 -0.020197934749829054  0.
-0.01837974501571092 -0.02052136279108349  0.
0.019523711756108796 -0.023042109624679345  0.
0.01696758324665208 -0.022724141079174122  0.
0.014457811991856499 -0.02244849993562659  0.
0.011987775367034433 -0.022215186712808612  0.
0.009550850461560494 -0.022024201208011907  0.
0.0071404147200036 -0.021875542612361683  0.
0.004749846306131003 -0.02176920981279435  0.
0.002372524169485295 -0.021705201762258697  0.
1.8278395244393347e-06 -0.021683517824575754  0.
-0.0023688629997147582 -0.021704158028097  0.
-0.004746169083555601 -0.021767123184466344  0.
-0.0071367122014555145 -0.021872414842755625  0.
-0.009547115780511262 -0.022020035058645353  0.
-0.01198400527020543 -0.02220998597283989  0.
-0.014454008142839299 -0.022442269226315033  0.
-0.016963753313452488 -0.022716885304619783  0.
-0.019519869858434884 -0.023033832997863185  0.
0.02064107561819521 -0.025695672726963686  0.
0.017945297184505903 -0.02538418242159876  0.
0.01529587524299861 -0.02511415541787176  0.
0.012686187706840834 -0.024885591913268366  0.
0.01010961223346387 -0.02469849173874304  0.
0.00755952662495754 -0.02455285438986826  0.
0.005029309065663787 -0.024448679199750314  0.
0.0025123381665424524 -0.024385965575621376  0.
1.9928222636531833e-06 -0.024364713229856637  0.
-0.0025083480862685657 -0.024384922350672977  0.
-0.005025306090729877 -0.024446593672677524  0.
-0.007555503563726167 -0.024549728420855753  0.
-0.010105564085042696 -0.024694328115348343  0.
-0.012682112633856851 -0.02488039424355193  0.
-0.015291775483184396 -0.025107927837102216  0.
-0.017941179690520295 -0.02537692903748392  0.
-0.020636952157548526 -0.02568739678791445  0.
0.02173540577046679 -0.02848744611515016  0.
0.01890285626963397 -0.02818243402783534  0.
0.016116663040137386 -0.02791802133923591  0.
0.013370204182029005 -0.02769420803983047  0.
0.010656857607022067 -0.027510993970613466  0.
0.007970001270882437 -0.027368378816514913  0.
0.005303013314058558 -0.027266362200558888  0.
0.0026492720808586646 -0.027204943828758002  0.
2.1560151013562017e-06 -0.02718412363672827  0.
-0.002644956547229399 -0.027203901896057814  0.
-0.005298687649078659 -0.027264279248404816  0.
-0.00796565999162162 -0.027365256646830146  0.
-0.010652497151904404 -0.027506835197701102  0.
-0.01336582365903753 -0.02768901591485394  0.
-0.016112264850947196 -0.027911799422730414  0.
-0.01889844646013029 -0.028175185676023513  0.
-0.021730993942851932 -0.028479173791867856  0.
0.022806702224406453 -0.03141455125117799  0.
0.019840260540530234 -0.031116017418386082  0.
0.016920175229791477 -0.030857219186395418  0.
0.014039824388219027 -0.030638156425704936  0.
0.011192585993784943 -0.030458828981790406  0.
0.008371838027349952 -0.030319236655281277  0.
0.005570958544668863 -0.030219379249770185  0.
0.0027833256748573563 -0.030159256656164538  0.
2.317540822863498e-06 -0.030138868940153253  0.
-0.002778687885115404 -0.03015821640241519  0.
-0.005566312961959511 -0.030217299587807896  0.
-0.008367180555929382 -0.0303161192290442  0.
-0.011187914160910157 -0.030454676122348825  0.
-0.014035137909338875 -0.030632970947866864  0.
-0.01691547642699865 -0.030851004066155475  0.
-0.019835554510970424 -0.03110877534153574  0.
-0.022801996659511582 -0.03140628405667983  0.
0.02385496481214895 -0.0344741093666507  0.
0.020757509913308797 -0.034182053852143915  0.
0.017706411659694325 -0.03392887018876753  0.
0.014695048051288385 -0.03371455818852376  0.
0.01171679702891379 -0.03353911770319348  0.
0.00876503652503048 -0.03340254860317986  0.
0.005833144490508393 -0.033304850799227424  0.
0.002914498878887915 -0.03324602428830429  0.
2.4775837696999284e-06 -0.03322606920162446  0.
-0.002909541661858668 -0.033244985833840224  0.
-0.005828181404032003 -0.03330277463683687  0.
-0.008760064574430577 -0.03339943616867566  0.
-0.01171181455002878 -0.03353497099777622  0.
-0.014690055130640433 -0.03370937957415183  0.
-0.01770141040828392 -0.033922662092478593  0.
-0.020752504523754777 -0.03417481838342524  0.
-0.023849961340571497 -0.03446584787507753  0.
0.02488019328948925 -0.03766324149646432  0.
0.021654604243678932 -0.03737766437232692  0.
0.018475372185400008 -0.03713009536475603  0.
0.015335874984797876 -0.036920534267818585  0.
0.012229490496394987 -0.03674898094342283  0.
0.009149596568434294 -0.036615435303827125  0.
0.006089571042058297 -0.03651989731953389  0.
0.003042791727427996 -0.03646236704174153  0.
2.636353511319819e-06 -0.03644284462534745  0.
-0.0030375175023678114 -0.03646133033864336  0.
-0.00608429249089171 -0.03651782454878346  0.
-0.009144311552463553 -0.03661232767737539  0.
-0.012224197940665784 -0.0367448401277247  0.
-0.015330575185605962 -0.036915362193759994  0.
-0.01847006698372575 -0.03712389396930642  0.
-0.021649297017048378 -0.03737043528297225  0.
-0.024874888728168388 -0.037654985685151396  0.
0.02588238739644548 -0.04097906851928246  0.
0.022531543366687817 -0.04069996985519144  0.
0.019227056675363504 -0.04045801557025204  0.
0.015962305061084113 -0.04025320546537156  0.
0.01273066627585566 -0.04008553941598804  0.
0.009525518072022886 -0.039955017359660165  0.
0.006340238186285816 -0.03986163929728924  0.
0.003168204312407985 -0.039805405302026586  0.
2.7940605933655105e-06 -0.03978631552730274  0.
-0.003162615092091291 -0.03980437020522498  0.
-0.0063346458502617315 -0.039859569628561874  0.
-0.009519921133768984 -0.0399519141133245  0.
-0.01272506408093528 -0.040081403944130164  0.
-0.015956698008489645 -0.040248039310426795  0.
-0.019221446322224445 -0.04045182024717823  0.
-0.02252593238425467 -0.04069274659709473  0.
-0.025876779357875936 -0.040970818010837046  0.
0.02686154689011171 -0.04441871119613858  0.
0.023388327120480154 -0.044146091053946596  0.
0.01996146501398533 -0.043909751542083465  0.
0.016574338191901183 -0.043709692481882126  0.
0.013220324306097401 -0.04354591376444575  0.
0.009892801015650144 -0.0434184153430455  0.
0.006585145963938257 -0.04332719723164626  0.
0.0032907367512096 -0.04327225950653623  0.
2.9509016659462442e-06 -0.04325360230607114  0.
-0.003284834171676685 -0.04327122582328924  0.
-0.006579241197452505 -0.0433251302874827  0.
-0.009886893062468843 -0.04341531593347508  0.
-0.01321441280466438 -0.04354178296095651  0.
-0.016568423575218538 -0.043704531490167356  0.
-0.019955548567971763 -0.043903561523606215  0.
-0.023382410922570682 -0.04413887292509319  0.
-0.026855633617276428 -0.04441046542617429  0.
0.027817671560098307 -0.04797929020345327  0.
0.0242249553591246 -0.04771314863504889  0.
0.020678597102810323 -0.04748242393374843  0.
0.017171974315578105 -0.047287115947403424  0.
0.01369846456090608 -0.04712722458357109  0.
0.01025144541481954 -0.047002749805787614  0.
0.006824294441180968 -0.04691369163146226  0.
0.003410389166119979 -0.04686005013004392  0.
3.107051444901557e-06 -0.04684182541873847  0.
-0.0034041745304695726 -0.04685901765284632  0.
-0.006818078315580807 -0.04691162700869503  0.
-0.010245227154840735 -0.04699965365897456  0.
-0.01369224400279229 -0.04712309774271777  0.
-0.017165751884337666 -0.047281959334712284  0.
-0.020672373839966614 -0.04747623842111356  0.
-0.024218732855318944 -0.047705934888662385  0.
-0.02781145178682165 -0.047971048533464115  0.
0.028750761233546192 -0.05165792615945109  0.
0.025041427958325247 -0.05139826320652506  0.
0.021378452860323097 -0.05117315334316927  0.
0.01775521338854105 -0.05098259644513388  0.
0.014165087033522214 -0.05082659243611572  0.
0.010601451301702054 -0.05070514128684399  0.
0.007057683691800873 -0.050618243013302144  0.
0.0035271616721577782 -0.05056589767364271  0.
3.262659369688464e-06 -0.05054810536245329  0.
-0.003520635999813161 -0.05056486620090292  0.
-0.007051157040093129 -0.05061618032192207  0.
-0.010594923278897533 -0.05070204785081116  0.
-0.014158557603933752 -0.05082246888327331  0.
-0.01774868294535169 -0.05097744346445651  0.
-0.02137192223376328 -0.05116697157368686  0.
-0.0250348983490726 -0.0513910531196733  0.
-0.028744234068614177 -0.051649687949668635  0.
0.0296608157743137 -0.055451739644304957  0.
0.025837744816766352 -0.05519855533912806  0.
0.02206103222081268 -0.05497906033331847  0.
0.018324055379717454 -0.05479325452917272  0.
0.01462019172701721 -0.054641137865443154  0.
0.010942818713635024 -0.054522710318285275  0.
0.007285313786807313 -0.05443797190016369  0.
0.0036410543706884404 -0.054386922656715034  0.
3.417849295524106e-06 -0.054369562661021775  0.
-0.003634218446659821 -0.05438589200470035  0.
-0.007278477246837048 -0.05443591078564562  0.
-0.010935981339837916 -0.05451961909310314  0.
-0.014613353561429501 -0.05463701699177025  0.
-0.018317216771918207 -0.054788104507581786  0.
-0.022054193824243347 -0.05497288161839352  0.
-0.02583090752677847 -0.055191348252620474  0.
-0.029653980606937237 -0.05544350429781973  0.
0.03054783507926393 -0.059357851214914756  0.
0.026613905854984122 -0.0591111455815658  0.
0.02272633513271247 -0.058897265446977945  0.
0.018878500266822733 -0.058716210737253145  0.
0.015063778648571733 -0.0585679814046582  0.
0.01127554768661755 -0.05845257742968602  0.
0.007507184788976127 -0.05836999882070094  0.
0.0037520673468317894 -0.05832024561133826  0.
3.5727209970931448e-06 -0.05830331785553645  0.
-0.0037449217677472794 -0.05831921562009151  0.
-0.0075000388429195385 -0.05836793897494153  0.
-0.011268401269754164 -0.05844948798194014  0.
-0.015056631844842811 -0.058563862683523815  0.
-0.018871353378112295 -0.05871106309322744  0.
-0.02271918866869684 -0.05889108919024257  0.
-0.026606760477826178 -0.05910394091995551  0.
-0.03054069150309175 -0.05934961820156072  0.
0.03141181907344253 -0.06337338141539234  0.
0.027369911013017396 -0.06313315447110017  0.
0.023374361556724475 -0.06292488921693563  0.
0.019418548033868152 -0.06274858559954019  0.
0.015495847806251207 -0.06260424358294367  0.
0.011599638252009603 -0.062491863151209706  0.
0.00772329675054 -0.062411444308749675  0.
0.003860200669205071 -0.06236298707849963  0.
3.7273526290715566e-06 -0.062346491498032446  0.
-0.003852745884443743 -0.062361957613736016  0.
-0.007715841759699578 -0.062409385473428815  0.
-0.011592183020356287 -0.06248877511815151  0.
-0.01548839243442994 -0.06260012657427035  0.
-0.01941109277656389 -0.06274343984732543  0.
-0.023366906809813275 -0.06291871491911856  0.
-0.027362457265782448 -0.06312595174925473  0.
-0.03140436682623765 -0.06336515028170088  0.
0.03225276770518173 -0.06749545078428376  0.
0.02810576024762451 -0.06726170254069601  0.
0.02400511146394103 -0.06705905217279742  0.
0.019944198669458294 -0.06688749964449443  0.
0.015916399207323524 -0.0667470449297886  0.
0.011915090435191433 -0.06663768801567402  0.
0.007933649712768926 -0.066559428903022  0.
0.003965454390990713 -0.06651226760559402  0.
3.881803576473648e-06 -0.06649620414731272  0.
-0.003957690738278736 -0.06651123855801541  0.
-0.007925885947395165 -0.06655737086810617  0.
-0.011907326557803468 -0.06663460110277333  0.
-0.01590863531756201 -0.06674292927667876  0.
-0.019936434977689058 -0.06688235539017114  0.
-0.02399734827838091 -0.06705287942804038  0.
-0.02809799793432867 -0.06725450136156193  0.
-0.03224500662136797 -0.06748722115407739  0.
0.033070680941679996 -0.07172117985942916  0.
0.02882145352953089 -0.07149391032371537  0.
0.024618584834095222 -0.07129687484540442  0.
0.02045545216559874 -0.07113007340265742  0.
0.016325432857489726 -0.0709935059777142  0.
0.012221904255354271 -0.07088717255987875  0.
0.008138243706601635 -0.07081107314690163  0.
0.00406782855166368 -0.07076520774480632  0.
4.036117345199095e-06 -0.0707495763662731  0.
-0.004059756287124044 -0.07076417902781451  0.
-0.008130171370904138 -0.07080901574614226  0.
-0.012213831858996214 -0.0708840865343054  0.
-0.01631736048640889 -0.07098939139832221  0.
-0.020447379989525657 -0.0711249303350858  0.
-0.024610513095612106 -0.07129070333223807  0.
-0.028813382511806103 -0.07148671037046231  0.
-0.03306261091517918 -0.07171295142824857  0.
0.03386555876530378 -0.07604768918120929  0.
0.029516990840952818 -0.07582689835696464  0.
0.02521478165400658 -0.07563547776965591  0.
0.020952308516833072 -0.07547342740905703  0.
0.01672294876062528 -0.07534074726400555  0.
0.012520079725892511 -0.07523743732545334  0.
0.008337078753796252 -0.07516349758832201  0.
0.00416732317896963 -0.07511892805209937  0.
4.1903243020579716e-06 -0.07510372872023412  0.
-0.004158942501954634 -0.07511789959853403  0.
-0.00832869800653146 -0.07516144069292792  0.
-0.012511698908875737 -0.07523435200709268  0.
-0.016714567936429208 -0.07533663354053341  0.
-0.02094392781787785 -0.07546828528770821  0.
-0.025206401275086606 -0.07562930723868158  0.
-0.029508611014679803 -0.07581969938156417  0.
-0.03385717972036831 -0.07603946170667521  0.
0.03463740117067266 -0.08047209929477928  0.
0.030192372173498534 -0.08025778718273163  0.
0.02579370191624009 -0.08007198148636784  0.
0.021434767719589402 -0.0799146822047895  0.
0.01710894691878508 -0.07978588933186678  0.
0.012809616855078141 -0.07968560285945209  0.
0.008530154868288833 -0.07961382277974473  0.
0.0042639382909304396 -0.07957054908662292  0.
4.34444418812475e-06 -0.07955578177592951  0.
-0.004255249364095353 -0.07956952084487527  0.
-0.00852146583938195 -0.0796117662908866  0.
-0.012800927698410897 -0.07968251811034446  0.
-0.01710025766536924 -0.0797817762977185  0.
-0.02142607846659999 -0.079909540845571  0.
-0.02578501282434654 -0.08006581174578231  0.
-0.030183683450168943 -0.08025058899213616  0.
-0.034628713038744215 -0.0804638725841236  0.
0.03538620816248343 -0.08499153075177152  0.
0.030847597526453368 -0.08478369735031348  0.
0.02635534561795941 -0.08460350654366164  0.
0.02190282977165455 -0.08445095833821976  0.
0.017483427332327817 -0.08432605273133797  0.
0.013090515646843723 -0.08422878971489597  0.
0.008717472057603716 -0.08415916927827838  0.
0.004357673897786454 -0.0841171914104307  0.
4.4984884133506145e-06 -0.08410285610091082  0.
-0.004348676862839268 -0.08411616334007013  0.
-0.00870847486122004 -0.08415711311867959  0.
-0.013081518223042272 -0.08422570542743515  0.
-0.017474429672576702 -0.08432194025681304  0.
-0.02189383193793105 -0.0844458175976946  0.
-0.026346347746203425 -0.08459733744304193  0.
-0.030838599818251468 -0.08477649979069177  0.
-0.03537721086345249 -0.08498330464707526  0.
0.03611197975396427 -0.08960310411185012  0.
0.03148266690539341 -0.0894017494174323  0.
0.02689971275992714 -0.08922717349827443  0.
0.022356494671714255 -0.08907937636615265  0.
0.017846390000084613 -0.08895835802025158  0.
0.013362776101600886 -0.08886411845143329  0.
0.008899030324270127 -0.08879665764599065  0.
0.0044485300038808896 -0.08875597558843938  0.
4.652462203207002e-06 -0.08874207226320273  0.
-0.004439224993304516 -0.08875494765532137  0.
-0.008889725068623799 -0.0887946017505363  0.
-0.013353470481408532 -0.08886103453521732  0.
-0.017837083958501285 -0.08895424599663339  0.
-0.022347188232841812 -0.08907423612398521  0.
-0.026890406039834346 -0.0892210049104604  0.
-0.031473360113227634 -0.08939455235634496  0.
-0.036102673180565356 -0.08959487847296241  0.
0.036814715965812206 -0.09430393994443367  0.
0.03209758032102634 -0.09410906395186314  0.
0.027426803345580574 -0.09394010291711272  0.
0.022795762418909342 -0.09379705685526803  0.
0.01819783491954274 -0.09367992576546379  0.
0.01362639821709333 -0.09358870963627279  0.
0.009074829667280964 -0.09352340845047165  0.
0.00453650660956588 -0.09348402218859475  0.
4.806366718858525e-06 -0.09347055083109368  0.
-0.004526893754376386 -0.09348299435928206  0.
-0.009065216461270016 -0.09352135275550892  0.
-0.013616784474213701 -0.09358562600313941  0.
-0.018188220524294807 -0.09367581408692759  0.
-0.022786147351389868 -0.0937919169942586  0.
-0.02741718770175733 -0.09393393471754198  0.
-0.03208796432501958 -0.09410186725778277  0.
-0.036805099970266014 -0.09429571462907736  0.
0.03749441682543502 -0.09909115883085652  0.
0.0326923377881201 -0.09890276153355214  0.
0.027936617380088093 -0.09873941537932417  0.
0.02322063301236136 -0.09860112038407154  0.
0.018537762087049256 -0.09848787654456394  0.
0.01388138198934002 -0.09839968384552407  0.
0.009244870083696455 -0.09833654226570418  0.
0.004621603713271375 -0.09829845178222058  0.
4.960201318165311e-06 -0.09828541237297025  0.
-0.004611683146559695 -0.098297424017433  0.
-0.009234949040189094 -0.09833448669648508  0.
-0.013871460203111679 -0.09839660039199712  0.
-0.018527839371449535 -0.09848376508696169  0.
-0.023210709293100575 -0.09859598076673928  0.
-0.027926692726790065 -0.09873324742176028  0.
-0.03268241244038579 -0.09889556505172492  0.
-0.037484491207856234 -0.09908293367102845  0.
0.03815108236628341 -0.10396188136721272  0.
0.03326693932433885 -0.10377996275748101  0.
0.028429154869265696 -0.10362223147914382  0.
0.023631106450623156 -0.1034886875455936  0.
0.01886617149806975 -0.10337933094824812  0.
0.014127727413776412 -0.10329416166606546  0.
0.009409151570557207 -0.10323317967328614  0.
0.004703821313937104 -0.1031963849445237  0.
5.113966169794044e-06 -0.10318377745710969  0.
-0.004693593169540363 -0.10319535719123338  0.
-0.00939892280582315 -0.10323112412881234  0.
-0.014117497669495596 -0.10329107825216868  0.
-0.018855940501431186 -0.10337521954350175  0.
-0.02362087405741034 -0.10348354798590766  0.
-0.02841892110911035 -0.10361606356636677  0.
-0.0332567044442439 -0.10377276628076214  0.
-0.03814084686483341 -0.10395365614064346  0.
0.03878471262701009 -0.1089132281681188  0.
0.033821384948755286 -0.10873778823752725  0.
0.028904415818202342 -0.10858567182976296  0.
0.02402718273101084 -0.10845687895106113  0.
0.019183063147571174 -0.10835140958352993  0.
0.014365434486759317 -0.10826926369804063  0.
0.009567674127339281 -0.10821044126402733  0.
0.004783159414071498 -0.10817494225520584  0.
5.267665480550597e-06 -0.10816276665132563  0.