<?xml version="1.0"?>
<VTKFile type="UnstructuredGrid" version="0.1" byte_order="LittleEndian" compressor="vtkZLibDataCompressor">
<UnstructuredGrid>
<Piece NumberOfPoints="1105" NumberOfCells="2048">
<PointData>
<DataArray type="Float64" Name="displacement" NumberOfComponents="3" format="ascii" >
0.0 -0.0018  0.
-0.000117919921875 -0.001378125  0.
-0.000188671875 -0.0010125  0.
-0.000218994140625 -0.000703125  0.
-0.000215625 -0.00045  0.
-0.000185302734375 -0.000253125  0.
-0.000134765625 -0.0001125  0.
-7.0751953125e-05 -2.8125e-05  0.
0.0 0.0  0.
7.0751953125e-05 -2.8125e-05  0.
0.000134765625 -0.0001125  0.
0.000185302734375 -0.000253125  0.
0.000215625 -0.00045  0.
0.000218994140625 -0.000703125  0.
0.000188671875 -0.0010125  0.
0.000117919921875 -0.001378125  0.
0.0 -0.0018  0.
0.0006197440993120478 -0.0015592742551687596  0.
0.0005581773158369014 -0.0013380808456237851  0.
0.000425096436918371 -0.0010756895845119784  0.
0.0003056400495746916 -0.0008311521860153134  0.
0.00021013803660545628 -0.0006217643558387404  0.
0.0001369191792024746 -0.0004547311941975952  0.
8.137253630984985e-05 -0.0003336242158715941  0.
3.792065185751423e-05 -0.00026032696987133094  0.
6.172889596313343e-07 -0.0002357653215609329  0.
-3.660934010790566e-05 -0.0002601934953183105  0.
-7.980975259460814e-05 -0.00033325816058806467  0.
-0.00013485890555318993 -0.00045388648693693226  0.
-0.00020719491168702254 -0.000619939434709138  0.
-0.0003012410803444598 -0.0008274344168756537  0.
-0.0004188781067763075 -0.0010688794063304613  0.
-0.0005544756427991645 -0.001329839830201269  0.
-0.0006727769558859773 -0.001583958741070037  0.
0.0013354430215936908 -0.0016238009100628982  0.
0.0011737463499769422 -0.0014161638188886824  0.
0.0009838611230968456 -0.0012163467734050664  0.
0.0007883720487819901 -0.0010231450319854347  0.
0.0006049655442875131 -0.0008520524001865672  0.
0.000437270272744588 -0.0007124710671072586  0.
0.0002835017656049671 -0.0006097854656738991  0.
0.00013975611280029793 -0.0005470494797246569  0.
1.2481933572478182e-06 -0.000525825958939667  0.
-0.00013713291231511716 -0.0005465662509194234  0.
-0.00028048699679807424 -0.0006087219060349192  0.
-0.00043358549856322966 -0.0007106572618033118  0.
-0.0006004210029746947 -0.0008493695038210735  0.
-0.0007833896889049573 -0.0010200088043197258  0.
-0.0009815890890920232 -0.0012152997741067292  0.
-0.001186886544068132 -0.0014255661435881488  0.
-0.0013743807546045452 -0.0016426931954082221  0.
0.0020611212125350997 -0.001845870828178559  0.
0.0017882259351552489 -0.0016426946614943878  0.
0.0015145419811555762 -0.0014630303539597267  0.
0.0012413202051237207 -0.0012997010883639333  0.
0.0009748502852505838 -0.0011559033946524485  0.
0.0007188800244301989 -0.00103785404838295  0.
0.0004732161788949549 -0.0009503842316657431  0.
0.0002353762483358802 -0.0008966324595558473  0.
1.7355444559179173e-06 -0.0008783311209679434  0.
-0.0002318083781853906 -0.0008960384192044659  0.
-0.00046939308629464176 -0.0009492432983953341  0.
-0.0007147990762870578 -0.0010363627146006643  0.
-0.0009709822273541329 -0.0011546754214758139  0.
-0.0012394009703017564 -0.0013002915711853571  0.
-0.0015189843211726045 -0.0014684179851823238  0.
-0.0018047029250063576 -0.0016545878172270273  0.
-0.0020871558579029156 -0.0018583299822529972  0.
0.002777234151942684 -0.002189025732325046  0.
0.0023988546424903025 -0.001990100731653134  0.
0.002033851790275044 -0.0018186736985828617  0.
0.0016768257894771246 -0.0016696818078089659  0.
0.001327380251451465 -0.0015424098608360266  0.
0.000986234136646114 -0.0014391575583059973  0.
0.0006529938509148958 -0.0013629200443786645  0.
0.000325830763490866 -0.0013161013214861167  0.
1.944361190942564e-06 -0.001300187741498581  0.
-0.0003219487687065384 -0.0013157256603999147  0.
-0.000649210218225267 -0.0013623610704560295  0.
-0.00098291872277465 -0.0014388881582572655  0.
-0.0013255029624469456 -0.0015433339589720747  0.
-0.001678349011904886 -0.0016731710834290497  0.
-0.0020414642293575865 -0.0018258417958442318  0.
-0.0024136461991320067 -0.0019998900748833324  0.
-0.002794971944362812 -0.002196910033836498  0.
0.0034786950946935798 -0.0026365822005239834  0.
0.0030019114148995395 -0.0024419166967020035  0.
0.0025453422384085606 -0.0022751311280589342  0.
0.002102034914303442 -0.002133371079712597  0.
0.0016686461020854922 -0.0020152795965540544  0.
0.0012435624091866146 -0.0019212225240231632  0.
0.0008254016754999379 -0.0018525227340470327  0.
0.00041230057298206316 -0.0018106034869104055  0.
1.8394840765770115e-06 -0.0017964887526912192  0.
-0.0004087526723873063 -0.0018106113699415242  0.
-0.000822332468729669 -0.0018527774671083885  0.
-0.00124158329756866 -0.0019222173712274734  0.
-0.001668788198601944 -0.002017721456036953  0.
-0.0021056838043506114 -0.002137905900460916  0.
-0.002553550006474738 -0.002281681667792549  0.
-0.0030139637652801077 -0.0024489679014742683  0.
-0.003491266541620045 -0.0026414159163013  0.
0.004164697303126361 -0.0031790918366902837  0.
0.0035953881671789024 -0.0029885558307853966  0.
0.003049321486134217 -0.0028252182852117943  0.
0.002519746870970646 -0.002687646163431513  0.
0.0020022590764502274 -0.002574709573225732  0.
0.001493947904016169 -0.0024860753738269615  0.
0.000992546157699691 -0.0024220872522722355  0.
0.0004958510944160561 -0.002383376347265048  0.
1.4841555488336528e-06 -0.002370501470498766  0.
-0.0004931070028778217 -0.002383737011392465  0.
-0.0009905337913763178 -0.0024229987202633273  0.
-0.0014933293710166693 -0.0024878738865518673  0.
-0.0020038495985737585 -0.0025777433824958136  0.
-0.0025242858041995167 -0.002692001575031872  0.
-0.003056925905560144 -0.002830374379733718  0.
-0.0036049239423020358 -0.002993268687134952  0.
-0.004173963596748636 -0.003181874953506828  0.
0.004835722952797276 -0.003810659578173546  0.
0.004178403536107863 -0.003624071067265186  0.
0.0035454620153088268 -0.00346376255957274  0.
0.0029308451668031226 -0.0033291008623927048  0.
0.002329937288235633 -0.003219309495188945  0.
0.0017392270314608232 -0.003133898694680805  0.
0.0011558658640285712 -0.0030727586792054905  0.
0.0005772898607736479 -0.0030360359113442152  0.
9.895763814473672e-07 -0.003023943189465901  0.
-0.0005755744030552714 -0.003036608803631141  0.
-0.0011549631765229048 -0.0030740054048957735  0.
-0.0017397220976526802 -0.003135960773017508  0.
-0.002332374373038694 -0.003222242022050026  0.
-0.0029355123172959815 -0.003332700855196715  0.
-0.003552076046852276 -0.0034674487633395796  0.
-0.00418593122368699 -0.003626975324417278  0.
-0.004842783544930043 -0.0038120094264840186  0.
0.005492540230790488 -0.004527322285430243  0.
0.004750668361019196 -0.004344505014985437  0.
0.0040334246528080445 -0.004187074490622613  0.
0.003335481135276585 -0.004054812236708265  0.
0.0026523534397425953 -0.003947231022998537  0.
0.001980315178578396 -0.0038638838999530086  0.
0.0013161917275507453 -0.0038045014057630187  0.
0.0006571375993114883 -0.0037689891021135346  0.
4.634385074593153e-07 -0.003757352939144074  0.
-0.0006564661086117183 -0.0037696174814126804  0.
-0.0013162786673443438 -0.003805777804143669  0.
-0.0019816195018819384 -0.003865800302507332  0.
-0.0026551986079915955 -0.003949670123807981  0.
-0.0033399057225291266 -0.004057469341075055  0.
-0.004039039396518196 -0.004189450199349848  0.
-0.004756672856776862 -0.004346033087513401  0.
-0.005498069376462076 -0.004527614481281616  0.
0.006135870035947902 -0.005326209859522516  0.
0.005312170031641182 -0.005147015947852419  0.
0.0045129751122554886 -0.004992408945313115  0.
0.0037335610014509186 -0.004862367512111867  0.
0.0029696787269875 -0.004756603976982654  0.
0.0022175769294812365 -0.004674768430389651  0.
0.0014739218131103952 -0.004616572143866094  0.
0.0007356761389851612 -0.004581830057351553  0.
-1.7922200898628478e-08 -0.004570448692514419  0.
-0.0007359299206938732 -0.004582393931396236  0.
-0.0014748061447689264 -0.004617666589378978  0.
-0.002219424457820811 -0.004676300391306691  0.
-0.002972663246508255 -0.004758382918549526  0.
-0.0037376098026626905 -0.004864086506666986  0.
-0.004517724087625292 -0.004993680736847419  0.
-0.0053170405739413834 -0.005147480726065297  0.
-0.006140304847169357 -0.005325677038513632  0.
0.006766294064815804 -0.00620508041654132  0.
0.005863005797598791 -0.006029394863971739  0.
0.00498397531038204 -0.005877592579402392  0.
0.004124934619590083 -0.005749733711508394  0.
0.003281871487724217 -0.0056456573720222855  0.
0.0024510899832838823 -0.005565109868612409  0.
0.0016291932408102176 -0.005507840032414165  0.
0.0008130232238288917 -0.005473651286152778  0.
-4.1411431589540094e-07 -0.005462417828184491  0.
-0.0008140209432694563 -0.00547408091343878  0.
-0.0016306719631140089 -0.005508641150030331  0.
-0.002453276350332952 -0.005566156684590573  0.
-0.003284848112459048 -0.005646748225333092  0.
-0.004128594801695186 -0.005750602018424002  0.
-0.004988023685720119 -0.005877952259236474  0.
-0.005867036803368717 -0.006029017884122417  0.
-0.006769933912254004 -0.006203874749922469  0.
0.007384249353085559 -0.007162054154020821  0.
0.006403301388694118 -0.006989791716183009  0.
0.005446352870134072 -0.0068407886167045  0.
0.004509462338558282 -0.006715128752766227  0.
0.003588817715727974 -0.0066127275511938975  0.
0.0026808025747749337 -0.006533409661784071  0.
0.0017820067963314895 -0.006476977307397339  0.
0.0008892003279479415 -0.006443257551599045  0.
-7.128246295708273e-07 -0.006432127809168043  0.
-0.0008907481891853042 -0.0064435255721127125  0.
-0.0017838961882869705 -0.006477450085876749  0.
-0.0026831791006193886 -0.006533961381547916  0.
-0.0035917123192491514 -0.006613177155786517  0.
-0.0045127707139169205 -0.006715262136386423  0.
-0.00544985195684 -0.006840399653349504  0.
-0.006406710288278146 -0.006988734359275201  0.
-0.007387307694746595 -0.007160284519914693  0.
0.00799005051488919 -0.008195458612424  0.
0.006933175147929007 -0.008026558225326485  0.
0.005900074885664705 -0.007880353629022218  0.
0.004887033533753136 -0.007756926114691291  0.
0.003890394214477511 -0.007656235003663008  0.
0.002906617925053143 -0.007578163239715337  0.
0.0019323039071563943 -0.007522564238511588  0.
0.0009641811570985839 -0.007489299881441485  0.
-9.190391719339066e-07 -0.007478266116043678  0.
-0.0009661014183346324 -0.007489407173977416  0.
-0.0019344506693299193 -0.007522721334126628  0.
-0.002909078421630893 -0.0075782605849353075  0.
-0.0038931717484331618 -0.007656124222460332  0.
-0.004890039622100153 -0.007756443535740181  0.
-0.005903147574515121 -0.007879352920119993  0.
-0.006936120452878889 -0.00802494443461973  0.
-0.007992682537191338 -0.008193211224840749  0.
0.00858391733548146 -0.00930373828158457  0.
0.007452725131153852 -0.009138157361311947  0.
0.006345130086264628 -0.008994752220010413  0.
0.005257567141109618 -0.008873591421912182  0.
0.004186493460150733 -0.008774658350248219  0.
0.0031284352209524436 -0.008697877088459196  0.
0.0020800089437475575 -0.008643143529006336  0.
0.0010379214487836008 -0.008610353912568987  0.
-1.0461184959232605e-06 -0.008599426728873986  0.
-0.0010400649321677061 -0.008610316821448036  0.
-0.002082291532179226 -0.008643022116839413  0.
-0.0031309039640373005 -0.008697583589765528  0.
-0.0041891377346289695 -0.008774078264369515  0.
-0.0052603166296225435 -0.008872604017176633  0.
-0.006347869717896452 -0.008993254843956338  0.
-0.007455320994746719 -0.009136087567311005  0.
-0.008586235749957037 -0.009301087085416836  0.
0.009165999736373841 -0.01048540197356309  0.
0.00796202701837481 -0.010323111493798982  0.
0.006781517956247976 -0.010182507163212404  0.
0.005621006512246714 -0.010063642589217891  0.
0.004477030493872957 -0.009966513551323518  0.
0.0033461667426764783 -0.009891072118892608  0.
0.002225049750853212 -0.009837246787981344  0.
0.0011103750321709324 -0.009804962978104445  0.
-1.1099280028427617e-06 -0.00979416023410941  0.
-0.0011126237971604985 -0.00980480425704287  0.
-0.00222737528161925 -0.009836893060497395  0.
-0.003348589545585873 -0.009890457021987526  0.
-0.004479533563589659 -0.009965552575086148  0.
-0.005623535621826881 -0.010062249248677517  0.
-0.006783992262605407 -0.010180610412330142  0.
-0.007964354317944644 -0.010320670208144445  0.
-0.009168084898055928 -0.010482413128952624  0.
0.009736397870190951 -0.011738992505613804  0.
0.008461136544638223 -0.011579973089333322  0.
0.007209242576970229 -0.011442170876399097  0.
0.005977313377632066 -0.011325625746819303  0.
0.00476194206517033 -0.01123033927492005  0.
0.0035597428410936507 -0.011156282020758962  0.
0.002367365802741867 -0.011103406268262634  0.
0.0011815011879347116 -0.011071660259436919  0.
-1.1255990155833374e-06 -0.011061000977021666  0.
-0.0011837660756340012 -0.0110714035745634  0.
-0.0023696653944378213 -0.011102866382538804  0.
-0.003562080898479705 -0.011155410947369793  0.
-0.004764299281958258 -0.011229076889622136  0.
-0.00597964839072033 -0.011323911772379212  0.
-0.007211498921583024 -0.011439957032412415  0.
-0.008463251271370365 -0.011577232674015068  0.
-0.009738305115321555 -0.011735725795895933  0.
0.010295177327532587 -0.013063069549829956  0.
0.00895009334960361 -0.012907308522270991  0.
0.007628309385066471 -0.012772309541355805  0.
0.0063264625790420016 -0.012658101197848494  0.
0.00504118298997792 -0.012564687292515031  0.
0.0037691113041811346 -0.012492050289451162  0.
0.002506909953928612 -0.012440159190457236  0.
0.0012512670830645584 -0.012408979149251327  0.
-1.1060827735694871e-06 -0.012398480591581914  0.
-0.0012534831481040274 -0.012408646201787223  0.
-0.002509133917384988 -0.012439474708266389  0.
-0.0037713369967610454 -0.012490980883843938  0.
-0.005043391005713578 -0.012563191617187254  0.
-0.006328621395354481 -0.012656138446901229  0.
-0.007630379737425362 -0.012769847754617697  0.
-0.008952033019628524 -0.012904330972111617  0.
-0.010296942789307864 -0.013059578456788064  0.
0.010842380200500535 -0.01445620019612106  0.
0.00942892483072358 -0.014303689441248914  0.
0.008038723620846193 -0.014171494592099213  0.
0.006668437973434819 -0.01405963552991775  0.
0.0053147220017097955 -0.013968116472607144  0.
0.003974234564381233 -0.013896927355076461  0.
0.0026436472666287276 -0.013846048575591153  0.
0.0013196477236137958 -0.013815457329192584  0.
-1.0617556471210072e-06 -0.013805133904892703  0.
-0.0013217692495894962 -0.013815066648622575  0.
-0.0026457607628903885 -0.013845254682124677  0.
-0.003976328533155839 -0.013895707870249272  0.
-0.005316778121364012 -0.013966443957354394  0.
-0.006670432149473586 -0.014057483304088287  0.
-0.008040628724312566 -0.014168842304341537  0.
-0.009430713424258176 -0.014300527320586533  0.
-0.01084402559941385 -0.014452531620104481  0.
0.01137803290522334 -0.015916953972716773  0.
0.009897649444416302 -0.015767688416427124  0.
0.008440489702102143 -0.015638298406782616  0.
0.0070032294405010884 -0.015528797390253118  0.
0.0055825380339660415 -0.01543918917726688  0.
0.004175086445825811 -0.015369468265365251  0.
0.0027775527959817466 -0.01531962261543568  0.
0.0013866248551269837 -0.015289637723956032  0.
-1.0005590182823527e-06 -0.015279500848609254  0.
-0.001388620781604867 -0.015289204414773045  0.
-0.002779532178701612 -0.015318747891074841  0.
-0.004177035472346023 -0.015368137737540869  0.
-0.0055844400844054865 -0.01543738539386923  0.
-0.007005066051260825 -0.01552650369870756  0.
-0.008442242346463853 -0.01563550260970527  0.
-0.009899301215074298 -0.01576438556126395  0.
-0.011379569497237748 -0.01591314806975386  0.
0.011902151588577829 -0.01744390039014135  0.
0.01035627931525695 -0.017297876950815017  0.
0.008833611072069729 -0.017171292331448217  0.
0.007330830784109216 -0.01706415537707132  0.
0.005844617229264611 -0.016976469192848644  0.
0.004371649199296524 -0.016908230976682613  0.
0.0029086092623192964 -0.016859433581340018  0.
0.0014521855733381217 -0.016830068067594513  0.
-9.283606261674033e-07 -0.016820126464878734  0.
-0.0014540356541871114 -0.016829604039600758  0.
-0.0029104391247166917 -0.016858500544685344  0.
-0.0043734446139355645 -0.01690682016064565  0.
-0.005846363562298964 -0.01697457012430835  0.
-0.007332513894175232 -0.017061758364632855  0.
-0.00883521856176013 -0.01716839079767647  0.
-0.010357801708386793 -0.01729446920414481  0.
-0.011903583353277507 -0.017439990691905438  0.
0.012414745793365824 -0.019035607871804798  0.
0.010804822196546967 -0.018892824748186626  0.
0.009218090267400196 -0.018769045947253  0.
0.007651238305270884 -0.018664277111237696  0.
0.006100950679167007 -0.018578520605957473  0.
0.004563911083074302 -0.01851177516622601  0.
0.0030368050088402 -0.018464036727905142  0.
0.0015163210075203235 -0.01843529998424353  0.
-8.493678049675165e-07 -0.018425560141556767  0.
-0.001518012752564716 -0.01843481438650854  0.
-0.0030384758693217284 -0.018463062691448383  0.
-0.004565547541966538 -0.018510307755952707  0.
-0.0061025401654421635 -0.018576554095173493  0.
-0.007652770040432701 -0.01866180651886896  0.
-0.009219556231082502 -0.01876606846516821  0.
-0.010806218055348557 -0.018889340800946668  0.
-0.012416071930421931 -0.019031621689310486  0.
0.012915820899660447 -0.020690643413656666  0.
0.011243282891834792 -0.02055109961009419  0.
0.009593929069964048 -0.020430126962119984  0.
0.007964449856593997 -0.020327728936319202  0.
0.006351532789103923 -0.020243907242614788  0.
0.00475186451414514 -0.020178661445361113  0.
0.0031621323667504492 -0.02013198936924084  0.
0.0015790252170599086 -0.02010388801652881  0.
-7.665119191151417e-07 -0.020094354651587428  0.
-0.0015805515455084868 -0.020103387721856047  0.
-0.0031636388970419536 -0.020130987358920622  0.
-0.004753339052113777 -0.020177155324110976  0.
-0.006352964769746154 -0.020241894414501742  0.
-0.007965831143275995 -0.020325207506303768  0.
-0.009595254757652506 -0.020427096552513797  0.
-0.011244552094016886 -0.020547561925846836  0.
-0.012917037714280903 -0.020686602452559398  0.
0.013405379723955816 -0.022407572601121886  0.
0.011671664257642886 -0.02227126761635361  0.
0.009961128674128437 -0.02215310138492527  0.
0.008270464230553675 -0.022053075930547294  0.
0.006596360133388416 -0.021971192430645107  0.
0.004935504716950328 -0.021907450862635524  0.
0.0032845864192458355 -0.02186185017055507  0.
0.0016402943291751618 -0.02183438878246833  0.
-6.817731243193826e-07 -0.02182506525788598  0.
-0.0016416518189176772 -0.021833878846423613  0.
-0.0032859261155383387 -0.021860829786620125  0.
-0.004936816018003925 -0.02190591925665369  0.
-0.006597634338547593 -0.02196914899294027  0.
-0.008271695285920245 -0.02205052069991559  0.
-0.009962313868126522 -0.022150035459856846  0.
-0.011672804901139944 -0.022267693384355327  0.
-0.013406481994359275 -0.022403493697573575  0.
0.01388342354916321 -0.024184959779690558  0.
0.012089967894849505 -0.02405189340629946  0.
0.010319689838652587 -0.023936533801067715  0.
0.008569280772972662 -0.02383888205525573  0.
0.006835430674800157 -0.02375893893869186  0.
0.0051148287683500495 -0.023696704606474654  0.
0.003404164103734772 -0.02365217863853076  0.
0.0017001258952809434 -0.023625360313587626  0.
-5.964399224169672e-07 -0.023616248979117082  0.
-0.0017013135073071792 -0.023624844375959526  0.
-0.0034053363098709693 -0.023651146806409683  0.
-0.00511597661207569 -0.023695157089871213  0.
-0.0068365471282692495 -0.023756876319803652  0.
-0.008570361419307419 -0.023836305504915032  0.
-0.010320733479829603 -0.023933445227943575  0.
-0.012090977132144017 -0.024048295466438697  0.
-0.013884405473240345 -0.024180855674500984  0.
0.0143499527762455 -0.02602136827267737  0.
0.012498194615853235 -0.025891540470209782  0.
0.010669613012128135 -0.025778987659330156  0.
0.008860899144786797 -0.025683710346914326  0.
0.007068743245086675 -0.02560570900479142  0.
0.005289834940674128 -0.025544983840074007  0.
0.0035208635793343127 -0.025501534773056046  0.
0.0017585184261201625 -0.025475361567769868  0.
-5.113092988239992e-07 -0.025466464030552326  0.
-0.0017595365957318357 -0.02547484218756542  0.
-0.0035218687838802264 -0.025500496370780945  0.
-0.005290819791264776 -0.025543427177991764  0.
-0.00706970217137143 -0.025603635317614434  0.
-0.008861829005253634 -0.02568112139239115  0.
-0.01067051361990718 -0.025775885704601948  0.
-0.012499069219956915 -0.0258879281661691  0.
-0.014350808590194145 -0.026017248361411633  0.
0.014804967328203505 -0.027915360594416006  0.
0.012896344754211177 -0.027788771410786815  0.
0.01101089843065294 -0.02767902552994457  0.
0.009145319179187514 -0.02758612310691946  0.
0.00729629720664354 -0.02751006440444347  0.
0.005460522260223661 -0.02745084962029741  0.
0.0036346837921760007 -0.027408478840238396  0.
0.0018154710644194842 -0.027382952087607427  0.
-4.2683715608265595e-07 -0.027374269419383992  0.
-0.001816321068971515 -0.027382431014023358  0.
-0.0036355231346890684 -0.027407437207577184  0.
-0.005461344969855247 -0.027449288457506445  0.
-0.00729709895062761 -0.02750798524216175  0.
-0.009146097796017688 -0.027583527930249575  0.
-0.011011654375728413 -0.027675916669988292  0.
-0.01289708148445028 -0.027785151344318772  0.
-0.014805691679635639 -0.02791123161263108  0.
0.015248466894443253 -0.029865498636987394  0.
0.01328441836584723 -0.029742148161057257  0.
0.011343546190720994 -0.029635209320053403  0.
0.00942254079865735 -0.029544682069219407  0.
0.007518092236845725 -0.02947056653060921  0.
0.005626890216778221 -0.029412862867466222  0.
0.0037456241829904196 -0.029371571231650295  0.
0.0018709833591467535 -0.0293466917702923  0.
-3.4324912976421634e-07 -0.029338224662978946  0.
-0.001871666890265403 -0.029346170156933044  0.
-0.003746299117285289 -0.029370528574152743  0.
-0.005627551818876822 -0.029411300278649535  0.
-0.007518737200470636 -0.029468485609488754  0.
-0.009423167701826999 -0.029542084800861002  0.
-0.011344155864228116 -0.029632097918234717  0.
-0.01328501418817826 -0.02973852483529072  0.
-0.015249055039213501 -0.029861365258522315  0.
0.01568045107389617 -0.031870343824064805  0.
0.013662415356954548 -0.031750232158022314  0.
0.011667556301756903 -0.03164610044567114  0.
0.009692563968651985 -0.03155794853949179  0.
0.00773412819354895 -0.031485776471419695  0.
0.005788938576309506 -0.031429584364067904  0.
0.003853684494235351 -0.03138937238209623  0.
0.0019250551126861713 -0.03136514071830757  0.
-2.606207655660867e-07 -0.03135688959891923  0.
-0.0019255739970104801 -0.03136461928938729  0.
-0.003854196567344519 -0.03138833008578664  0.
-0.005789440147779937 -0.031428022285273215  0.
-0.00773461678990417 -0.031483696139644385  0.
-0.009693038713586897 -0.03155535180485547  0.
-0.011668018212900274 -0.031642989302994785  0.
-0.013662867561735627 -0.03174660850923002  0.
-0.01568089895204773 -0.03186620916453349  0.
0.01610091945504424 -0.03392845723289821  0.
0.0140303355631643 -0.03381158447700217  0.
0.011982928722784518 -0.03371025996487775  0.
0.009955388673049717 -0.033624483506279036  0.
0.007944405033180352 -0.03355425507907922  0.
0.00594666726271708 -0.033499574768326434  0.
0.003958864645322631 -0.033460442725381574  0.
0.001977686279208133 -0.03343685914612994  0.
-1.7893448507768112e-07 -0.033428824260505675  0.
-0.001978042305039525 -0.03343633832323741  0.
-0.003959215360017665 -0.03345940159763101  0.
-0.005947009837633953 -0.03349801432916685  0.
-0.007944737656080702 -0.033552176711754346  0.
-0.00995571085930664 -0.03362188885432106  0.
-0.011983241548118723 -0.03370715075686943  0.
-0.014030641813229628 -0.033807962301966685  0.
-0.01610122368834055 -0.03392432326025552  0.
0.016509871657440417 -0.03603839968854823  0.
0.01438817879685732 -0.035924765933419346  0.
0.012289663387186098 -0.03582624867881516  0.
0.010211014902075015 -0.035742847727375245  0.
0.008148922762198526 -0.035674563027731816  0.
0.006100076284826003 -0.03562139463401784  0.
0.004061164653549493 -0.03558334267362648  0.
0.0020288768983581828 -0.035560407324309366  0.
-9.811923841670057e-08 -0.035552588797300284  0.
-0.0020290717162555604 -0.03555988732145334  0.
-0.004061355389816088 -0.0355823031243072  0.
-0.006100260805352522 -0.03561983640876766  0.
-0.008149099768308167 -0.03567248732747578  0.
-0.010211184180575386 -0.03574025595943739  0.
-0.01228982598818088 -0.0358231422938737  0.
-0.014388337130390698 -0.035921146223941255  0.
-0.01651002949976407 -0.036034267548497555  0.
0.016907307350350894 -0.03819873183533548  0.
0.014735944874025807 -0.03808833715873096  0.
0.012587760218787809 -0.03799262720706848  0.
0.010459442647045592 -0.03791160179565854  0.
0.008347681409277804 -0.03784526086031052  0.
0.00624916569251683 -0.03779360443154019  0.
0.004160584585185092 -0.03775663261037  0.
0.002078627052956532 -0.03773434554761153  0.
-1.8077412524580904e-08 -0.03772674342572501  0.
-0.0020786621266267865 -0.0377338264411643  0.
-0.004160616562106308 -0.037755594785505664  0.
-0.006249192985796878 -0.03779204862514697  0.
-0.008347703109663573 -0.037843188081153556  0.
-0.010459458720616321 -0.03790901321203141  0.
-0.01258777163946331 -0.037989524002120766  0.
-0.01473595368000653 -0.03808472035670586  0.
-0.016907316613097138 -0.03819460210232881  0.
0.017293226258298953 -0.04040801419026861  0.
0.015073633628282164 -0.04030085865641463  0.
0.012877219141794573 -0.04020795604324832  0.
0.010700671898613552 -0.040129306188501045  0.
0.008540681010068725 -0.04006490902546631  0.
0.0063939355512617705 -0.040014764567588186  0.
0.004257124526136584 -0.0399788728911533  0.
0.002126936842807375 -0.03995723411809055  0.
6.129752521641928e-08 -0.03994984839917363  0.
-0.0021268134330216246 -0.03995671589713336  0.
-0.004256998790434585 -0.039977836769316065  0.
-0.006393806323634235 -0.04001321115027575  0.
-0.008540547668354718 -0.040062839135577316  0.
-0.010700534518803673 -0.040126720768590134  0.
-0.012877078594654782 -0.040204856031792205  0.
-0.015073491607015804 -0.04029724484304035  0.
-0.017293085225733914 -0.040403887055792016  0.
0.01766762815952324 -0.04266480718258904  0.
0.015401244916999856 -0.042560890842883975  0.
0.013158040086472781 -0.04247079559559313  0.
0.01093470264661274 -0.042394521304415095  0.
0.00872792159939114 -0.04233206790609034  0.
0.006534385928067389 -0.04228343540223818  0.
0.004350784565129889 -0.04224862384768246  0.
0.0021738063691843935 -0.042227633337052366  0.
1.4011003431588762e-07 -0.042220463990462365  0.
-0.002173525538278554 -0.04222711593859491  0.
-0.004350501996344592 -0.04224758930753482  0.
-0.006534100770133487 -0.042281884204059525  0.
-0.008727633434179092 -0.04233000070248636  0.
-0.010934411608639172 -0.04239193883432169  0.
-0.013157746932377866 -0.04246769858166234  0.
-0.01540095103424426 -0.04255727987459805  0.
-0.017667335503703464 -0.042660682592053335  0.
0.018030512880963082 -0.04496767118283753  0.
0.0157187786228029 -0.044866994077211966  0.
0.013430222991967802 -0.04477970621643662  0.
0.011161534880493871 -0.04470580748999767  0.
0.008909403207682761 -0.04464529784101012  0.
0.006670516884340071 -0.044598177263114255  0.
0.004441564784763782 -0.044564445793294875  0.
0.002219235726308318 -0.04454410350205397  0.
2.1845622371854202e-07 -0.04453715048187655  0.
-0.0022187983544257523 -0.044543586834687295  0.
-0.0044411261098894145 -0.04456341265900475  0.
-0.006670076282172083 -0.044596628037657855  0.
-0.00890896039743522 -0.04464323302707103  0.
-0.011161090017477759 -0.044703227649094374  0.
-0.01342977671772748 -0.04477661188607587  0.
-0.01571833206304551 -0.04486338567939985  0.
-0.018030067581937793 -0.044963548931260755  0.
0.018381880291870604 -0.04731516652415995  0.
0.016026234652435124 -0.04721772868267997  0.
0.01369376780723928 -0.047133248223539065  0.
0.011381168589836366 -0.04706172505965276  0.
0.009085125859787501 -0.04700315914133124  0.
0.006802328472858537 -0.04695755045678412  0.
0.004529465257441821 -0.04692489902850376  0.
0.002263224997356761 -0.04690520490656826  0.
2.9642088079705066e-07 -0.046898468159757595  0.
-0.0022626318042235378 -0.04690468886532507  0.
-0.004528871069958631 -0.0469238670983045  0.
-0.006801732822000868 -0.046956002921306306  0.
-0.00908452854885515 -0.04700109637577066  0.
-0.011380569767066083 -0.04705914747553564  0.
-0.013693168003401564 -0.047130156203320665  0.
-0.016025634774773024 -0.04721412251038342  0.
-0.018381281566215463 -0.04731104631932457  0.
0.018721730297202716 -0.049705853517978994  0.
0.016323612934250675 -0.0496116549624694  0.
0.013948674490786916 -0.049529981915591506  0.
0.011593603764707468 -0.04946083431005942  0.
0.009255089574963534 -0.04940421210271594  0.
0.006929820737128795 -0.04936011527776966  0.
0.0046144860442914395 -0.049328543846044896  0.
0.0023057742533972468 -0.049309497840916025  0.
3.7407680756745187e-07 -0.04930297731170696  0.
-0.00230502582129619 -0.04930898231544684  0.
-0.004613736824057471 -0.04932751290796379  0.
-0.006929070357053467 -0.049358569135340945  0.
-0.009254337879833433 -0.04940215102671205  0.
-0.011592850874407966 -0.049458258589220226  0.
-0.013947920831206433 -0.04952689180571635  0.
-0.016322859232893724 -0.049608050635493596  0.
-0.018720977536198655 -0.04970173501813601  0.
0.019050062831357323 -0.05213829246568237  0.
0.016610913415041655 -0.052047333211266734  0.
0.014194943009603878 -0.05196846758366056  0.
0.011798840395787507 -0.05190169553093063  0.
0.00941929436748565 -0.05184701701469031  0.
0.007052993712104316 -0.05180443201564504  0.
0.004696627195917409 -0.05177394053522913  0.
0.0023468835542255714 -0.051755542593678656  0.
4.514857834795185e-07 -0.051749238225218576  0.
-0.002345980349116462 -0.05175502747129777  0.
-0.004695723327439169 -0.05177291037295848  0.
-0.007052088859493862 -0.051802886963459686  0.
-0.009418388382622784 -0.05184495726218521  0.
-0.011797933352727536 -0.05189912127067636  0.
-0.014194035233802225 -0.05196537897137105  0.
-0.016610005485555055 -0.05204373032936646  0.
-0.019049155549104343 -0.052134175297315316  0.