<?xml version="1.0"?>
<VTKFile type="UnstructuredGrid" version="0.1" byte_order="LittleEndian" compressor="vtkZLibDataCompressor">
<UnstructuredGrid>
<Piece NumberOfPoints="306" NumberOfCells="250">
<PointData>
<DataArray type="Float64" Name="displacement" NumberOfComponents="3" format="ascii" >
0.0 0.0  0.
0.0 0.0  0.
0.0 0.0  0.
0.0 0.0  0.
0.0 0.0  0.
0.0 0.0  0.
0.06814989616578934 -0.045505648838346124  0.
0.03543992570338964 -0.016068200043139372  0.
0.011666164828726277 -0.004563923620604001  0.
-0.01166616482873116 -0.0045639236206048385  0.
-0.03543992570339465 -0.016068200043142113  0.
-0.06814989616579586 -0.04550564883835178  0.
0.13706772004710152 -0.08987920068316316  0.
0.0793584681075485 -0.06255288610639871  0.
0.025654939259816895 -0.047811269741408174  0.
-0.02565493925982764 -0.04781126974140955  0.
-0.07935846810755973 -0.06255288610640301  0.
-0.13706772004711373 -0.08987920068317029  0.
0.2054742279134033 -0.1615938558221665  0.
0.12154021760175601 -0.13444386995831567  0.
0.04013646611513495 -0.12064393230027232  0.
-0.04013646611515204 -0.1206439323002739  0.
-0.12154021760177344 -0.13444386995832036  0.
-0.2054742279134212 -0.16159385582217417  0.
0.27315874745183627 -0.2602911340020865  0.
0.16240877910873125 -0.23383203112947007  0.
0.05386281867032988 -0.22053361972181146  0.
-0.05386281867035336 -0.22053361972181307  0.
-0.16240877910875492 -0.23383203112947476  0.
-0.2731587474518601 -0.2602911340020942  0.
0.33951600068729115 -0.3859382953467625  0.
0.20225795334718516 -0.3600662967261989  0.
0.06717381416235367 -0.3471231475223451  0.
-0.06717381416238345 -0.34712314752234663  0.
-0.202257953347215 -0.3600662967262035  0.
-0.3395160006873211 -0.38593829534677015  0.
0.40443502104598267 -0.5378697114258973  0.
0.24120900156521288 -0.5125776647182618  0.
0.08016076831755783 -0.49993158235739144  0.
-0.08016076831759385 -0.499931582357393  0.
-0.24120900156524894 -0.5125776647182664  0.
-0.4044350210460187 -0.5378697114259049  0.
0.46789461858665005 -0.715484359218712  0.
0.2792830186006582 -0.6907673981796797  0.
0.09285215831845607 -0.6784093448159255  0.
-0.09285215831849829 -0.678409344815927  0.
-0.2792830186007004 -0.6907673981796841  0.
-0.46789461858669223 -0.7154843592187197  0.
0.5298944403900746 -0.9181914964084398  0.
0.316482333623861 -0.8940493282974347  0.
0.10525176693986642 -0.8819783755917148  0.
-0.1052517669399148 -0.8819783755917163  0.
-0.3164823336239094 -0.8940493282974392  0.
-0.529894440390123 -0.9181914964084473  0.
0.5904351236344361 -1.1454066740818487  0.
0.352806628496745 -1.1218392828584296  0.
0.11735981218276818 -1.1100556142063196  0.
-0.11735981218282271 -1.110055614206321  0.
-0.3528066284967995 -1.121839282858434  0.
-0.5904351236344907 -1.1454066740818563  0.
0.649516934250209 -1.3965462900174175  0.
0.38825570265958187 -1.3735537041354182  0.
0.12917615926128287 -1.3620574139039203  0.
-0.12917615926134354 -1.3620574139039219  0.
-0.3882557026596426 -1.3735537041354229  0.
-0.6495169342502697 -1.3965462900174253  0.
0.7071399283257742 -1.6710268508056205  0.
0.42282950032661015 -1.6486090778513194  0.
0.1407007573206152 -1.6374001910819649  0.
-0.14070075732068207 -1.6374001910819667  0.
-0.4228295003266771 -1.6486090778513238  0.
-0.7071399283258409 -1.671026850805628  0.
0.763304113167735 -1.9682648445024398  0.
0.4565280122149965 -1.9464218861259899  0.
0.15193359472239062 -1.9355004067056962  0.
-0.15193359472246343 -1.9355004067056973  0.
-0.4565280122150696 -1.9464218861259939  0.
-0.7633041131678079 -1.9682648445024469  0.
0.8180094885531854 -2.2876767500506023  0.
0.4893512377234548 -2.266408606403113  0.
0.16287466998382694 -2.255774534515014  0.
-0.1628746699839052 -2.255774534515015  0.
-0.48935123772353395 -2.2664086064031164  0.
-0.8180094885532652 -2.287676750050609  0.
0.8712560540784295 -2.6286790438444556  0.
0.5212991770869149 -2.6079857149081893  0.
0.1735239831310786 -2.5976390504288847  0.
-0.17352398313116155 -2.597639050428885  0.
-0.5212991770870002 -2.607985714908192  0.
-0.8712560540785168 -2.6286790438444614  0.
0.9230438096149088 -2.990688201881945  0.
0.5523718304122942 -2.9705696876427266  0.
0.1838815342441537 -2.9605104305223398  0.
-0.18388153424424014 -2.96051043052234  0.
-0.5523718304123857 -2.9705696876427288  0.
-0.9230438096150059 -2.990688201881951  0.
0.973372755138017 -3.373120700138931  0.
0.5825691977250932 -3.3535770005929266  0.
0.19394732334876658 -3.343805150820179  0.
-0.193947323348856 -3.3438051508201814  0.
-0.5825691977251906 -3.353577000592933  0.
-0.9733727551381277 -3.3731207001389425  0.
1.0222428906453536 -3.7753930146031305  0.
0.6118912790289719 -3.756424129749677  0.
0.2037213504499599 -3.7469396873230782  0.
-0.2037213504500571 -3.7469396873230876  0.
-0.6118912790290749 -3.7564241297497003  0.
-1.0222428906454808 -3.7753930146031616  0.
1.0696542161372602 -4.196921621267195  0.
0.6403380743239877 -4.178527551106248  0.
0.213203615548236 -4.1693305160258225  0.
-0.2132036155483616 -4.169330516025854  0.
-0.6403380743240956 -4.178527551106319  0.
-1.0696542161373974 -4.196921621267275  0.
1.1156067316139806 -4.637122996124916  0.
0.6679095836099891 -4.619303740656486  0.
0.22239411864351488 -4.610394112922325  0.
-0.22239411864372727 -4.610394112922403  0.
-0.6679095836101011 -4.6193037406566635  0.
-1.1156067316140854 -4.637122996125093  0.
1.1601004370756238 -5.09541361517025  0.
0.694605806886922 -5.078169174394331  0.
0.23129285973571656 -5.06954695400648  0.
-0.23129285973614488 -5.069546954006638  0.
-0.694605806887037 -5.078169174394686  0.
-1.1601004370755579 -5.095413615170569  0.
1.2031353325222995 -5.571209954397217  0.
0.7204267441547743 -5.554540328313777  0.
0.23989983882478458 -5.546205515272236  0.
-0.23989983882564606 -5.546205515272469  0.
-0.7204267441548927 -5.554540328314297  0.
-1.2031353325217267 -5.571209954397597  0.
1.244711417954159 -6.063928489799998  0.
0.7453723954135414 -6.047833678408974  0.
0.24821505591072207 -6.039786272713625  0.
-0.24821505591222398 -6.03978627271375  0.
-0.745372395413671 -6.047833678409241  0.
-1.244711417952441 -6.0639284897998955  0.
1.2848286933713007 -6.572985697373155  0.
0.7694427606632127 -6.557465700674465  0.
0.2562385109937763 -6.549705702324861  0.
-0.25623851099563066 -6.549705702324158  0.
-0.769442760663382 -6.557465700672862  0.
-1.2848286933676027 -6.572985697370788  0.
1.3234871587733368 -7.097798053111927  0.
0.7926378399037647 -7.082852871105569  0.
0.26397020407492183 -7.0753802801004975  0.
-0.2639702040748916 -7.075380280097031  0.
-0.7926378399040499 -7.082852871097737  0.
-1.3234871587676003 -7.097798053102933  0.
1.3606868141581943 -7.637782033012261  0.
0.814957633135158 -7.623411665698653  0.
0.27141013515680174 -7.616226482035568  0.
-0.2714101351473648 -7.6162264820252314  0.
-0.8149576331357148 -7.623411665675395  0.
-1.3606868141545054 -7.637782032988278  0.
1.3964276595195346 -8.192354113069467  0.
0.836402140357353 -8.178558560450302  0.
0.2785583042450211 -8.171660784125212  0.
-0.2785583042074441 -8.171660784101507  0.
-0.8364021403584162 -8.178558560397132  0.
-1.3964276595346579 -8.192354113019398  0.
1.4307096948425329 -8.76093076927267  0.
0.856971361570398 -8.74771003135261  0.
0.2854147113484894 -8.741099662362595  0.
-0.2854147112462211 -8.741099662320586  0.
-0.8569713615721065 -8.747710031258755  0.
-1.4307096949228828 -8.760930769195065  0.
1.4635329201002725 -9.342928477589284  0.
0.8766652967746893 -9.330282554378355  0.
0.29197935647409146 -9.323959592732331  0.
-0.2919793562568101 -9.323959592685748  0.
-0.8766652967763882 -9.330282554275376  0.
-1.4635329203460983 -9.342928477535756  0.
1.4948973352610202 -9.937763713931316  0.
0.8954839459715794 -9.925692605445768  0.
0.29825223960345226 -9.919657051194774  0.
-0.29825223925758654 -9.91965705122453  0.
-0.8954839459699098 -9.925692605516657  0.
-1.4948973358360367 -9.937763714117356  0.
1.5248029403362426 -10.544852954099847  0.
0.9134273091644622 -10.533356660353283  0.
0.30423336062687983 -10.527608513656842  0.
-0.3042333603582428 -10.527608514017901  0.
-0.9134273091492779 -10.533356661172055  0.
-1.5248029413812327 -10.544852955126679  0.
1.5532497355364172 -11.163612673735797  0.
0.9304953863600139 -11.15269119469891  0.
0.3099227191974579 -11.147230455935661  0.
-0.3099227199056958 -11.147230457236638  0.
-0.9304953863078168 -11.152691197631459  0.
-1.5532497367712086 -11.163612676910697  0.
1.5802377216503798 -11.79345934840887  0.
0.9466881775675752 -11.783112683893119  0.
0.3153203144850147 -11.777939353763108  0.
-0.3153203187301249 -11.77793935713674  0.
-0.9466881774361922 -11.783112691472281  0.
-1.5802377212171261 -11.793459355887602  0.
1.6057669007674205 -12.43380945423092  0.
0.9620056827902292 -12.424037603628259  0.
0.3204261449399835 -12.419151682992414  0.
-0.3204261583811288 -12.41915168985283  0.
-0.9620056825313553 -12.424037618990088  0.
-1.6057668926296593 -12.433809467933461  0.
1.6298372772234442 -13.084079469867177  0.
0.976447901992057 -13.074882431703271  0.
0.32524020861542036 -13.07028392040716  0.
-0.3252402408057307 -13.070283930589163  0.
-0.9764479016293502 -13.0748824543738  0.
-1.6298372466727433 -13.084079486370893  0.
1.6524488576757852 -13.74368588146581  0.
0.9900148350122769 -13.735063652947257  0.
0.32976250568700033 -13.730752545911907  0.
-0.3297625658281377 -13.730752551429346  0.
-0.9900148348911249 -13.735063664781844  0.
-1.6524487766886353 -13.74368587703895  0.
1.673601646507459 -14.412045192111835  0.
1.002706481388125 -14.40399776961387  0.
0.333993046940658 -14.399974047173483  0.
-0.3339931226598754 -14.399974016698035  0.
-1.0027064827779906 -14.403997699946485  0.
-1.6736014782948123 -14.412045088836571  0.
1.6932956269213344 -15.088573934403435  0.
1.014522840083562 -15.08110131778342  0.
0.3379318749293593 -15.07736492698336  0.
-0.33793186873201964 -15.077364775611656  0.
-1.014522846311807 -15.081100975768614  0.
-1.6932953683006697 -15.088573541138885  0.
1.7115307085585 -15.772688672215462  0.
1.0254639093067035 -15.765790879647039  0.
0.34157910529402 -15.762341708909858  0.
-0.3415786883414735 -15.762341256658729  0.
-1.025463927212483 -15.765789862038108  0.
-1.7115305371442822 -15.772687622038282  0.
1.728306614245752 -16.463805942698368  0.
1.0355296872035378 -16.457483048187573  0.
0.3449349837917147 -16.454320921846087  0.
-0.3449333356227934 -16.45431988300572  0.
-1.0355297271124042 -16.457480717858022  0.
-1.7283072623102025 -16.463803746526747  0.
1.7436226947729652 -17.161342014045353  0.
1.0447201757748945 -17.15559422110421  0.
0.34799990247581286 -17.152719008468377  0.
-0.34799541904692394 -17.15271716302246  0.
-1.0447202439486543 -17.155590098344252  0.
-1.743626193597283 -17.161338600022138  0.
1.7574777665309225 -17.86471220822399  0.
1.053035394511907 -17.85953995488766  0.
0.35077417078058676 -17.856952033350648  0.
-0.3507646354507953 -17.856949975625245  0.
-1.0530354624669485 -17.85953540316354  0.
-1.7574885121015038 -17.864709820670537  0.
1.7698704152838882 -18.573329434094646  0.
1.060475418338163 -18.568733419653682  0.
0.3532570119396384 -18.566434987136766  0.
-0.35324179506371256 -18.566436241160844  0.
-1.0604753404251601 -18.568736425068074  0.
-1.7698956020148584 -18.573337478746453  0.
1.780801021441816 -19.286601702565786  0.
1.067040469452897 -19.282582544808378  0.
0.3554436991105028 -19.280580459581408  0.
-0.3554317404977916 -19.28059620036828  0.
-1.0670397997148195 -19.282618188881326  0.
-1.7808469114795675 -19.286646519255324  0.
1.7902785121302824 -20.00392986410776  0.
1.0727310103371974 -20.000486219553256  0.
0.3573191071433488 -19.99879726798994  0.
-0.357349672561576 -19.998854018656022  0.
-1.0727287513409114 -20.00061445092519  0.
-1.790332953592531 -20.00406862938752  0.
1.798336798321186 -20.724709179224106  0.
1.077547199886288 -20.72183477228927  0.
0.3588460704181171 -20.72049126547694  0.
-0.3590311496611649 -20.720639371484978  0.
-1.0775415069885232 -20.72216618066292  0.
-1.7983190887022567 -20.725037401437948  0.
1.8050731673220193 -21.44835612091793  0.
1.0814831781827599 -21.446024503023413  0.
0.35994898335329495 -21.445084949746747  0.
-0.3605358793868016 -21.445382701960913  0.
-1.0814733008171737 -21.446700006675755  0.
-1.8047170154140058 -21.44895538651816  0.
1.810706017243429 -22.17435926298092  0.
1.084498715195735 -22.17255756832226  0.
0.36051094818000884 -22.17205904902738  0.
-0.36191572137011163 -22.172513853940945  0.
-1.0844901569171026 -22.17354092590138  0.
-1.8093728785822658 -22.175102851446578  0.
1.8157685805761437 -22.902728269867367  0.
1.0864286448793397 -22.901171048759352  0.
0.36042622296125143 -22.901188639750615  0.
-0.36301267719908153 -22.901322875801537  0.
-1.0865075397272574 -22.90172693640021  0.
-1.8121472030039532 -22.902492316926384  0.
1.8207478221847784 -23.633772001812424  0.
1.0867278826270228 -23.633428314153793  0.
0.3604593858379544 -23.63198181362396  0.
-0.36335850788462287 -23.63051551413168  0.
-1.0874315612404901 -23.62983968955126  0.
-1.8131978893060638 -23.62983841855434  0.
1.8269687929876395 -24.38274308595022  0.
1.0890829416748018 -24.368803290305316  0.
0.3619920974601749 -24.361177099919242  0.
-0.3627181230933543 -24.357536623900923  0.
-1.0874898546730494 -24.35633631133713  0.
-1.81334141572589 -24.356187266617084  0.
</DataArray>
<DataArray type="Float64" Name="Nodal_sigma_xx" NumberOfComponents="1" format="ascii" >
0.03300023360787908 
0.02417500331352628 
0.0076748865095859105 
-0.007674886509589227 
-0.02417500331352981 
-0.033000233607882824 
0.03222002046894261 
0.024112750600572393 
0.008002740366100231 
-0.00800274036610367 
-0.024112750600575893 
-0.03222002046894616 
0.031232108797173065 
0.023726741039773305 
0.00811068664118588 
-0.008110686641189451 
-0.023726741039776768 
-0.031232108797176424 
0.03072659174688398 
0.02312836381303638 
0.00776506793959349 
-0.00776506793959706 
-0.023128363813039843 
-0.030726591746887362 
0.03011073859248086 
0.022600943150120525 
0.007545573853879215 
-0.007545573853882751 
-0.022600943150124002 
-0.030110738592484275 
0.0294664567400668 
0.022101596057357502 
0.007368367687323224 
-0.007368367687326728 
-0.022101596057360978 
-0.02946645674007025 
0.02881284835186071 
0.02160946944059898 
0.007203045264667754 
-0.0072030452646712415 
-0.021609469440602443 
-0.02881284835186415 
0.028158021413070316 
0.021118368950148108 
0.007039358243612084 
-0.007039358243615561 
-0.021118368950151557 
-0.028158021413073726 
0.02750312080178088 
0.02062729979557987 
0.006875739394688554 
-0.00687573939469204 
-0.020627299795583327 
-0.027503120801784322 
0.026848264350695206 
0.020136191085897072 
0.006712058910548577 
-0.006712058910552088 
-0.020136191085900524 
-0.026848264350698647 
0.02619342448265119 
0.019645067853678436 
0.006548355612351989 
-0.006548355612355439 
-0.019645067853681884 
-0.026193424482654597 
0.02553858843480298 
0.019153941484678815 
0.006384647267276507 
-0.006384647267279888 
-0.019153941484682267 
-0.0255385884348064 
0.02488375287516686 
0.01866281473450466 
0.006220938296920402 
-0.006220938296923725 
-0.018662814734508117 
-0.024883752875170438 
0.024228917308107903 
0.018171688000166542 
0.006057229346111817 
-0.0060572293461149205 
-0.018171688000169987 
-0.024228917308111685 
0.02357408171503974 
0.017680561289132004 
0.00589352043161148 
-0.005893520431614242 
-0.017680561289135553 
-0.023574081715043924 
0.02291924611357521 
0.01718943458525922 
0.005729811528471158 
-0.005729811528473327 
-0.01718943458526299 
-0.02291924611358024 
0.02226441051045657 
0.01669830788273623 
0.005566102627507596 
-0.0055661026275092805 
-0.016698307882740016 
-0.022264410510462174 
0.021609574907170307 
0.016207181180337902 
0.00540239372675176 
-0.005402393726754802 
-0.016207181180340986 
-0.02160957490717435 
0.02095473930390729 
0.01571605447792004 
0.0052386848259625115 
-0.005238684825972962 
-0.015716054477920297 
-0.02095473930390243 
0.020299903700668996 
0.015224927775492177 
0.005074975925145406 
-0.005074975925178719 
-0.015224927775483989 
-0.020299903700635086 
0.019645068097455864 
0.01473380107306641 
0.004911267024306994 
-0.004911267024395009 
-0.014733801073038942 
-0.01964506809735083 
0.018990232494275797 
0.014242674370647405 
0.004747558123444223 
-0.004747558123633868 
-0.014242674370586034 
-0.0189902324940349 
0.018335396891117337 
0.013751547668229816 
0.0045838492225691385 
-0.004583849222884868 
-0.013751547668131685 
-0.01833539689069765 
0.01768056128787795 
0.013260420965780291 
0.0044201403217666345 
-0.004420140322063332 
-0.013260420965709448 
-0.017680561287441596 
0.01702572568420145 
0.012769294263194283 
0.004256431421319426 
-0.004256431420886543 
-0.012769294263423766 
-0.017025725684622708 
0.01637089007918309 
0.012278167560224217 
0.004092722521927388 
-0.004092722518654736 
-0.012278167561522365 
-0.01637089008314583 
0.01571605447101903 
0.011787040856412752 
0.003929013624949706 
-0.003929013614008826 
-0.011787040860462662 
-0.01571605448481473 
0.015061218857126062 
0.011295914151198828 
0.003765304732238904 
-0.003765304705096011 
-0.011295914160805458 
-0.015061218892212683 
0.014406383236431418 
0.01080478744469011 
0.003601595844223944 
-0.003601595791487318 
-0.010804787462443143 
-0.014406383306412562 
0.01375154761798253 
0.010313660740222776 
0.003437886953044753 
-0.0034378868810427485 
-0.010313660762039448 
-0.013751547718366912 
0.013096712043794655 
0.009822534050684895 
0.0032741780248057685 
-0.003274178007657755 
-0.009822534046706122 
-0.013096712086060332 
0.01244187663634689 
0.009331407410743495 
0.0031104689636008674 
-0.0031104692672394157 
-0.00933140728177718 
-0.01244187628701389 
0.011787041671707977 
0.00884028089338214 
0.002946759558413919 
-0.002946760870806482 
-0.008840280394270558 
-0.011787040045156618 
0.011132207628348484 
0.008349154613253204 
0.002783049455363571 
-0.0027830531722512885 
-0.008349153269540468 
-0.01113220288200914 
0.01047737500530668 
0.007858028654569678 
0.002619338320732596 
-0.0026193465053132546 
-0.007858025823388716 
-0.010477364298518407 
0.009822543336740673 
0.007366902763143031 
0.0024556266415861673 
-0.0024556403828496724 
-0.007366898309959048 
-0.009822524760591807 
0.009167708162288641 
0.006875775478452121 
0.002291918107982961 
-0.002291931113761093 
-0.006875772189129591 
-0.009167688729386673 
0.008512853919318525 
0.006384642230220395 
0.002128225067800691 
-0.0021282063442637196 
-0.006384652027462194 
-0.008512871771917833 
0.007857940985575167 
0.005893492159764595 
0.001964578177540882 
-0.00196443539702292 
-0.005893548670330506 
-0.00785811352548743 
0.007202890231672552 
0.005402305181489381 
0.0018010370703636426 
-0.0018005586144818368 
-0.005402482186201852 
-0.0072034931340189574 
0.00654758784745804 
0.004911056617172076 
0.0016376834885519576 
-0.0016364945176710198 
-0.0049114774122828294 
-0.006549124199005815 
0.005891984083821357 
0.004419751543143509 
0.0014745387667044498 
-0.0014722242520058735 
-0.004420530808616515 
-0.005895054582278044 
0.005236467771116396 
0.003928538576268651 
0.001311267575735214 
-0.0013080952836291974 
-0.0039295014612952634 
-0.005240886585282609 
0.004582856020025158 
0.003437994439352696 
0.0011464083590732872 
-0.001145606361993192 
-0.0034378363690873446 
-0.004584776154721964 
0.003936531995006913 
0.0029496272261792756 
0.000975764910478042 
-0.0009889498505345658 
-0.002944030907982064 
-0.003921354751290552 
0.0033097706351787937 
0.0024664521607807156 
0.0007897283872464783 
-0.0008470070013660016 
-0.00244461370483676 
-0.0032388903188311988 
0.00272636847606082 
0.001991364465227622 
0.0005698932580672649 
-0.0007322222590571781 
-0.0019330774960988131 
-0.0025182844123431635 
0.002213333210255548 
0.001521298258051631 
0.0002906576609867063 
-0.0006473149578587263 
-0.0013973242661149453 
-0.0017479666003867398 
0.0017928486824605777 
0.0010109683651500574 
-5.772642489511919e-05 
-0.00052537972442056 
-0.0008386979163355097 
-0.0009711772814596749 
0.001089581984050055 
0.00045660913350838975 
-0.00020957859793358638 
-0.00028305186082466815 
-0.0003352123940921278 
-0.0003471145453688163 
0.0005707599014601805 
0.00017779988290879113 
-0.00017095394040520217 
-0.0001267097989590297 
-0.00011442601032543437 
-0.00010218016790061544 
</DataArray>
<DataArray type="Float64" Name="Nodal_sigma_yy" NumberOfComponents="1" format="ascii" >
0.007995107543144926 
0.006163947146323556 
0.0021663933747508024 
-0.0021663933747519343 
-0.006163947146324619 
-0.00799510754314595 
0.00377759562666555 
0.0031827234906450152 
0.0012939256773120335 
-0.0012939256773128265 
-0.0031827234906456592 
-0.003777595626666079 
-0.00022133927224110388 
4.1462494007255815e-05 
0.00015213213012773088 
-0.0001521321301280001 
-4.146249400738776e-05 
0.00022133927224107092 
-2.7799943247600913e-05 
-9.17875536662363e-05 
-7.788758204244634e-05 
7.788758204240671e-05 
9.178755366621202e-05 
2.7799943247589637e-05 
-3.0210538060885042e-05 
-3.9784867681464395e-05 
-2.4679598651011547e-05 
2.467959865101865e-05 
3.978486768146385e-05 
3.0210538060911063e-05 
-4.562326851159475e-06 
-8.394880234285852e-06 
-6.113716808697523e-06 
6.113716808706901e-06 
8.394880234280215e-06 
4.5623268511638115e-06 
-7.546770583732876e-07 
-1.1279713663920167e-06 
-7.506328372025811e-07 
7.50632837203828e-07 
1.1279713663868126e-06 
7.546770583715529e-07 
4.3189438238017824e-08 
2.492878999483649e-08 
3.3340708721683963e-09 
-3.3340708992192405e-09 
-2.4928789978356618e-08 
-4.318943816559312e-08 
3.777280209449341e-08 
5.850723225548412e-08 
3.962083118584864e-08 
-3.962083124482924e-08 
-5.850723224106423e-08 
-3.777280203724753e-08 
1.2533430388591421e-08 
1.9049512066078925e-08 
1.2782796819253619e-08 
-1.2782796928541198e-08 
-1.9049512046671706e-08 
-1.2533430341320206e-08 
2.2586923629185074e-09 
3.694134535704892e-09 
2.56478837758309e-09 
-2.564788356170097e-09 
-3.69413451976712e-09 
-2.2586922805191423e-09 
2.1675858417197214e-10 
3.7344690447665974e-10 
2.650676760333412e-10 
-2.650676049096787e-10 
-3.734469463268636e-10 
-2.1675855554903478e-10 
-3.638826349613988e-11 
-4.6371438047927704e-11 
-2.8177362651265678e-11 
2.8177220891831625e-11 
4.637138470518082e-11 
3.6388214923882556e-11 
-2.1808232303355268e-11 
-3.304346824373888e-11 
-2.213948384973026e-11 
2.2139247656286984e-11 
3.304346759321758e-11 
2.1808176358523168e-11 
-5.806378381573163e-12 
-9.0852582618553e-12 
-6.18223433058486e-12 
6.1818544803537295e-12 
9.085159924718256e-12 
5.80628036969677e-12 
-9.42952313454093e-13 
-1.5436671038648875e-12 
-1.0721980486620708e-12 
1.0722666786595891e-12 
1.54366385125837e-12 
9.427801421491022e-13 
-5.119429186128954e-14 
-1.0058371236604247e-13 
-7.416178673773366e-14 
7.699247597976744e-14 
1.0199035626462516e-13 
5.164531996504351e-14 
2.790172606847996e-14 
4.044659572544074e-14 
2.963726269608613e-14 
-1.8862895186794182e-14 
-3.4801263433525964e-14 
-2.5593676483692818e-14 
1.432187701766452e-14 
2.5149587273842755e-14 
2.6511629805554826e-14 
2.759145451176892e-15 
-9.89095957915076e-15 
-8.254247979566642e-15 
8.932524858673574e-15 
2.0611984341556422e-14 
3.433376900927737e-14 
2.8372825464952067e-14 
1.2231968909981461e-14 
4.094381084174259e-15 
1.114082784359205e-14 
2.7415895074989205e-14 
5.035075546604151e-14 
4.914056900111319e-14 
2.6074303306755642e-14 
1.0878017236981563e-14 
1.1069270500208006e-14 
2.3223502114422256e-14 
3.8017305232715404e-14 
3.764444810559764e-14 
2.3138392243882144e-14 
1.1644765013363312e-14 
-1.199648019811761e-14 
-4.502778358506099e-14 
-1.0475336418604153e-13 
-1.0485896547764162e-13 
-4.48098589483914e-14 
-1.134942834157826e-14 
-1.0731736679869819e-13 
-3.0122486536360293e-13 
-6.173780291249958e-13 
-6.173946174182349e-13 
-3.00976257805452e-13 
-1.0678697509591828e-13 
-3.7127419194593614e-13 
-9.812831428500368e-13 
-1.9449693862850365e-12 
-1.944698661002567e-12 
-9.809135383294365e-13 
-3.710764334696748e-13 
-9.415025183090453e-13 
-2.395336912760365e-12 
-4.642633133944592e-12 
-4.6422446100960815e-12 
-2.394989371753975e-12 
-9.415844839932852e-13 
-1.8734462765845894e-12 
-4.573318611832133e-12 
-8.640355222749516e-12 
-8.640284315927435e-12 
-4.573262883840468e-12 
-1.873476634245419e-12 
-2.675363403037423e-12 
-6.030454943999758e-12 
-1.0785722290881754e-11 
-1.0785956370130793e-11 
-6.030682951716632e-12 
-2.675351259973091e-12 
-1.0812622498745927e-12 
-6.264941907266341e-13 
1.2624579658580826e-12 
1.2619358683019222e-12 
-6.270501153905761e-13 
-1.0813299040901558e-12 
9.492683332099072e-12 
2.8693312754003025e-11 
6.092133633499308e-11 
6.092101503167927e-11 
2.8692924338574732e-11 
9.492549107870119e-12 
4.385167511229693e-11 
1.1887299066100365e-10 
2.389687873852273e-10 
2.389693977368403e-10 
1.1887360459048382e-10 
4.385168226803127e-11 
1.2757453492044657e-10 
3.305022045971273e-10 
6.476326095414611e-10 
6.476348469552744e-10 
3.3050489195484214e-10 
1.2757543480824973e-10 
2.8709648677502364e-10 
7.164965818459539e-10 
1.3727797785919845e-09 
1.3727882807970009e-09 
7.165083983485913e-10 
2.871031153702658e-10 
4.965323579814857e-10 
1.1764475438204476e-09 
2.1794691854753502e-09 
2.17949333499454e-09 
1.1764836427654614e-09 
4.965562568331333e-10 
5.147579170642486e-10 
1.031829018874244e-09 
1.676436093630163e-09 
1.6764377133197885e-09 
1.0318377098388586e-09 
5.147720596142269e-10 
-4.958777106382067e-10 
-1.931761271182098e-09 
-4.526560688913406e-09 
-4.527059889258096e-09 
-1.932470010727015e-09 
-4.96296789038661e-10 
-4.662084520518084e-09 
-1.312498569989171e-08 
-2.6918965491528756e-08 
-2.692262943274949e-08 
-1.3130333386269632e-08 
-4.6654520108324604e-09 
-1.6219406954662285e-08 
-4.288846685746874e-08 
-8.504457581109043e-08 
-8.506061285013742e-08 
-4.291220838850804e-08 
-1.6234815938646896e-08 
-4.122420388798058e-08 
-1.0489429031580256e-07 
-2.0336776684211062e-07 
-2.0340578786496417e-07 
-1.0495280864964438e-07 
-4.1265198509957135e-08 
-8.22508283509181e-08 
-2.0078278600583338e-07 
-3.793563325042181e-07 
-3.792914896632148e-07 
-2.0069879217067153e-07 
-8.221252636260099e-08 
-1.1829191759698925e-07 
-2.6672729958341973e-07 
-4.763829649392069e-07 
-4.7508166304166977e-07 
-2.6487026835673717e-07 
-1.1718045893869839e-07 
-5.3240329804526976e-08 
-3.7807553365283445e-08 
4.249915050850067e-08 
5.048855924307758e-08 
-2.601241108068377e-08 
-4.562886270448145e-08 
3.991783012208955e-07 
1.2244364061799926e-06 
2.63471661779848e-06 
2.6657120181068946e-06 
1.2700624058251564e-06 
4.284394998943942e-07 
1.8726219317853534e-06 
5.151154924501754e-06 
1.0413378863582176e-05 
1.0462725138628017e-05 
5.233978574070513e-06 
1.93957668083119e-06 
5.76497301334872e-06 
1.4666792863915945e-05 
2.8480562540646394e-05 
2.8210142380719664e-05 
1.4266612529149393e-05 
5.505452663669076e-06 
1.3633477661051212e-05 
3.372368915749259e-05 
6.179055789706e-05 
5.8498503943290196e-05 
2.9198456531168352e-05 
1.1167120315942346e-05 
3.275272284466871e-05 
6.478564257240786e-05 
0.00010375526770563424 
8.731822508645243e-05 
3.910568149573846e-05 
1.4266885929693567e-05 
3.916889911295354e-05 
8.921106584019728e-05 
0.00010266184880824571 
4.0077065322437444e-05 
7.543399099184038e-06 
1.0031326025435733e-06 
0.00014521739430617213 
-4.926364050330246e-06 
-0.00021449881924305637 
-0.00022956742202583848 
-0.00011494838329643037 
-4.468943862046393e-05 
-0.0017336230232005638 
-0.0016468059523003936 
-0.001291394354769636 
-0.0007416706504157841 
-0.0002727038793310222 
-8.486628596952482e-05 
-0.0037261410673703433 
-0.003188739096422696 
-0.002073240924427314 
-0.0010419448014973446 
-0.0003406219095271095 
-9.249893943910894e-05 
</DataArray>
<DataArray type="Float64" Name="Nodal_sigma_xy" NumberOfComponents="1" format="ascii" >
-0.0027127705281095676 
-0.001208751936473957 
0.0008151372005248401 
0.0008151372005246779 
-0.0012087519364744424 
-0.002712770528110214 
-0.0013770156919741283 
-0.0009026315595854795 
-0.0001588605944315518 
-0.0001588605944316676 
-0.0009026315595857695 
-0.001377015691974477 
-0.00011284737997385702 
-0.0005703125184196595 
-0.0011232637915977658 
-0.0011232637915977953 
-0.0005703125184196888 
-0.00011284737997385648 
-0.00025206002988919433 
-0.0005711546094958093 
-0.0010528153755640182 
-0.001052815375564002 
-0.0005711546094957676 
-0.0002520600298891433 
-0.00034186428357687297 
-0.000606125526226892 
-0.0009729423319890851 
-0.0009729423319890651 
-0.0006061255262268519 
-0.0003418642835768327 
-0.00036805115171597257 
-0.0006159128918507605 
-0.0009500615322956588 
-0.0009500615322956458 
-0.0006159128918507362 
-0.0003680511517159499 
-0.0003724379247083126 
-0.0006179819507168829 
-0.0009457990869333553 
-0.0009457990869333478 
-0.0006179819507168739 
-0.0003724379247083096 
-0.0003727501100915464 
-0.0006181874685195086 
-0.0009454374764390737 
-0.0009454374764390776 
-0.0006181874685195132 
-0.00037275011009154757 
-0.0003726452483917483 
-0.0006181681153842186 
-0.000945509260424249 
-0.0009455092604242478 
-0.0006181681153842116 
-0.0003726452483917372 
-0.00037259590294823477 
-0.0006181511338035832 
-0.0009455509147265875 
-0.0009455509147265856 
-0.0006181511338035813 
-0.0003725959029482347 
-0.00037258390030788625 
-0.00061814640861177 
-0.0009455616412385908 
-0.0009455616412385843 
-0.0006181464086117596 
-0.0003725839003078784 
-0.0003725821397509747 
-0.0006181455785562587 
-0.0009455633515726084 
-0.0009455633515725616 
-0.0006181455785561976 
-0.00037258213975094605 
-0.00037258209879721075 
-0.0006181455196525858 
-0.0009455634309532483 
-0.0009455634309531778 
-0.0006181455196524789 
-0.00037258209879713767 
-0.00037258216731671164 
-0.0006181455380213459 
-0.0009455633783248291 
-0.0009455633783246858 
-0.0006181455380210653 
-0.0003725821673164377 
-0.00037258219246150495 
-0.0006181455470647957 
-0.0009455633567091025 
-0.0009455633567088209 
-0.0006181455470642218 
-0.00037258219246092056 