<?xml version="1.0"?>
<VTKFile type="UnstructuredGrid" version="0.1" byte_order="LittleEndian" compressor="vtkZLibDataCompressor">
<UnstructuredGrid>
<Piece NumberOfPoints="306" NumberOfCells="250">
<PointData>
<DataArray type="Float64" Name="displacement" NumberOfComponents="3" format="ascii" >
0.0 0.0  0.
0.0 0.0  0.
0.0 0.0  0.
0.0 0.0  0.
0.0 0.0  0.
0.0 0.0  0.
0.11682839342701769 -0.07800968372284324  0.
0.06075415834864372 -0.02754548578822392  0.
0.01999913970638117 -0.007823869063885061  0.
-0.019999139706386032 -0.007823869063885897  0.
-0.060754158348648724 -0.02754548578822665  0.
-0.11682839342702421 -0.07800968372284889  0.
0.23497323436636142 -0.1540786297424933  0.
0.13604308818431488 -0.10723351903948718  0.
0.04397989587395716 -0.0819621766995129  0.
-0.04397989587396786 -0.08196217669951429  0.
-0.13604308818432606 -0.10723351903949145  0.
-0.23497323436637357 -0.1540786297425004  0.
0.35224153356568944 -0.277018038552157  0.
0.20835465874578576 -0.2304752056427163  0.
0.06880537048306586 -0.20681816965750766  0.
-0.06880537048308286 -0.2068181696575092  0.
-0.2083546587458031 -0.23047520564272095  0.
-0.3522415335657072 -0.2770180385521646  0.
0.46827213848867305 -0.4462133725748017  0.
0.2784150499005747 -0.40085491050747596  0.
0.0923362605776786 -0.37805763380864055  0.
-0.09233626057770196 -0.3780576338086421  0.
-0.2784150499005982 -0.4008549105074806  0.
-0.46827213848869664 -0.4462133725748093  0.
0.5820274297494111 -0.6616085063084385  0.
0.34672792002361436 -0.6172565086732024  0.
0.11515510999256999 -0.5950682528951745  0.
-0.11515510999259959 -0.5950682528951761  0.
-0.34672792002364405 -0.6172565086732069  0.
-0.5820274297494409 -0.661608506308446  0.
0.6933171789357003 -0.9220623624439875  0.
0.4135011455402108 -0.8787045680880557  0.
0.137418459972914 -0.8570255697551419  0.
-0.13741845997294977 -0.8570255697551434  0.
-0.4135011455402466 -0.8787045680880602  0.
-0.6933171789357362 -0.9220623624439951  0.
0.8021050604339507 -1.226544615802972  0.
0.4787708890295246 -1.1841726825932157  0.
0.1591751285458769 -1.162987448255358  0.
-0.15917512854591886 -1.1629874482553593  0.
-0.47877088902956655 -1.1841726825932202  0.
-0.8021050604339928 -1.2265446158029794  0.
0.9083904692397875 -1.5740425652709351  0.
0.5425411433549956 -1.5326559913663678  0.
0.18043160046828954 -1.5119629295851391  0.
-0.18043160046833767 -1.511962929585141  0.
-0.5425411433550438 -1.5326559913663722  0.
-0.9083904692398357 -1.5740425652709427  0.
1.0121744976586615 -1.963554298425195  0.
0.6048113631370645 -1.9231530563279167  0.
0.20118824945611669 -1.9029524814957335  0.
-0.2011882494561709 -1.902952481495735  0.
-0.6048113631371187 -1.9231530563279213  0.
-1.012174497658716 -1.9635542984252026  0.
1.1134576015713862 -2.3940793543145737  0.
0.6655812045590542 -2.3546634928025854  0.
0.22144484444785215 -2.334955566691451  0.
-0.2214448444479125 -2.3349555666914523  0.
-0.6655812045591147 -2.35466349280259  0.
-1.1134576015714466 -2.3940793543145813  0.
1.2122398771294718 -2.8646174585227415  0.
0.7248505719882309 -2.8261869906010917  0.
0.24120129826384704 -2.8069717561393457  0.
-0.24120129826391357 -2.806971756139347  0.
-0.7248505719882974 -2.826186990601096  0.
-1.2122398771295384 -2.8646174585227486  0.
1.308521336858524 -3.3741683048599547  0.
0.7826194495111656 -3.336723233357478  0.
0.2604575909526018 -3.3180006972084066  0.
-0.2604575909526742 -3.3180006972084075  0.
-0.7826194495112382 -3.3367232333574814  0.
-1.3085213368585964 -3.3741683048599613  0.
1.4023019803764183 -3.9217315715137473  0.
0.8388878360970823 -3.8852718966894866  0.
0.27921371997220445 -3.8670420591670345  0.
-0.27921371997228184 -3.8670420591670354  0.
-0.838887836097161 -3.8852718966894892  0.
-1.4023019803764978 -3.921731571513753  0.
1.4935818069911042 -4.5063069323030005  0.
0.893655732148718 -4.470832654126551  0.
0.29746968536749113 -4.453095515019173  0.
-0.2974696853675721 -4.453095515019173  0.
-0.8936557321488028 -4.470832654126552  0.
-1.4935818069911921 -4.506306932303005  0.
1.5823608164821956 -5.126894060367051  0.
0.9469231378493596 -5.092405178814111  0.
0.31522548727561833 -5.075160738036307  0.
-0.31522548727570104 -5.075160738036307  0.
-0.9469231378494504 -5.092405178814111  0.
-1.5823608164822958 -5.126894060367056  0.
1.66863900880751 -5.782492628807375  0.
0.9986900532427218 -5.748989143871372  0.
0.33248112574066774 -5.732237401403807  0.
-0.3324811257407515 -5.732237401403809  0.
-0.9986900532428186 -5.748989143871379  0.
-1.6686390088076295 -5.78249262880739  0.
1.7524163839629332 -6.472102310745773  0.
1.048956478335079 -6.43958422242557  0.
0.3492366007712844 -6.423325178265688  0.
-0.3492366007713771 -6.423325178265704  0.
-1.0489564783351817 -6.439584222425608  0.
-1.7524163839630764 -6.472102310745821  0.
1.83369294194905 -7.194722779312506  0.
1.0977224131265302 -7.1631900876080286  0.
0.3654919123683289 -7.147423741755871  0.
-0.3654919123684662 -7.147423741755924  0.
-1.097722413126637 -7.163190087608148  0.
-1.833692941949206 -7.194722779312638  0.
1.912468682766278 -7.949353707639789  0.
1.144987857616815 -7.918806412551055  0.
0.3812470605316644 -7.90353276500678  0.
-0.3812470605319464 -7.903532765006913  0.
-1.1449878576169246 -7.918806412551356  0.
-1.9124686827663744 -7.949353707640089  0.
1.9887436064148045 -8.734994768860123  0.
1.190752811805841 -8.70543287038712  0.
0.3965020452611538 -8.690651921150803  0.
-0.3965020452618016 -8.690651921151073  0.
-1.1907528118059514 -8.705432870387725  0.
-1.9887436064146045 -8.734994768860664  0.
2.0625177128948167 -9.550645636106108  0.
1.235017275693587 -9.522069134248785  0.
0.41125686655670035 -9.507780883320427  0.
-0.4112568665580864 -9.507780883320823  0.
-1.2350172756936992 -9.522069134249671  0.
-2.0625177128937446 -9.550645636106756  0.
2.133791002206575 -10.39530598251063  0.
1.277781249280045 -10.367714877268876  0.
0.42551152441830875 -10.353919324648277  0.
-0.42551152442078893 -10.35391932464849  0.
-1.2777812492801726 -10.36771487726933  0.
-2.1337910022035365 -10.39530598251045  0.
2.202563474350248 -11.267975481207227  0.
1.3190447325651968 -11.2413697725809  0.
0.43926601884640354 -11.228066918267292  0.
-0.4392660188494838 -11.228066918266087  0.
-1.3190447325653891 -11.241369772578151  0.
-2.202563474343811 -11.267975481203166  0.
2.26883512932517 -12.167653805330591  0.
1.358807725549003 -12.14203349331969  0.
0.45252034984265493 -12.129223337310997  0.
-0.4525203498425008 -12.129223337305053  0.
-1.35880772554939 -12.142033493306261  0.
-2.2688351293152347 -12.167653805315169  0.
2.3326059671277877 -13.093340628016634  0.
1.3970702282313947 -13.068705712621874  0.
0.46527451741159404 -13.05638825491373  0.
-0.46527451739531006 -13.056388254896008  0.
-1.3970702282322438 -13.068705712582004  0.
-2.332605967121358 -13.093340627975518  0.
2.393875987747234 -14.044035622400175  0.
1.4338322406123045 -14.020386103624459  0.
0.4775285215628298 -14.008561344210017  0.
-0.4775285214983026 -14.008561344169381  0.
-1.433832240614018 -14.02038610353331  0.
-2.3938759877730513 -14.044035622314338  0.
2.4526451911580955 -15.018738461605427  0.
1.469093762691815 -14.99607433945675  0.
0.48928236231163547 -14.984742278331009  0.
-0.48928236213620535 -14.98474227825899  0.
-1.4690937626946314 -14.996074339295852  0.
-2.452645191295727 -15.018738461472386  0.
2.508913577314229 -16.016448818719383  0.
1.5028547944706059 -15.99477009321493  0.
0.5005360396698132 -15.983930730393173  0.
-0.5005360392972141 -15.983930730313315  0.
-1.5028547944734025 -15.994770093038396  0.
-2.508913577735529 -16.016448818627616  0.
2.5626811461612355 -17.036166366734065  0.
1.5351153359509953 -17.01547303790169  0.
0.5112895536058638 -17.005126373471413  0.
-0.5112895530128312 -17.00512637352242  0.
-1.5351153359480139 -17.015473038023213  0.
-2.5626811471468574 -17.036166367052985  0.
2.6139478977187696 -18.076890778451315  0.
1.5658753871388014 -18.057182846314344  0.
0.5215429039317423 -18.047328880549017  0.
-0.521542903471099 -18.04732888116797  0.
-1.5658753871126485 -18.05718284771795  0.
-2.6139478995100585 -18.076890780211592  0.
2.662713832347652 -19.137621726398432  0.
1.5951349480454686 -19.11889919090662  0.
0.5312960900527363 -19.10953792445534  0.
-0.5312960912667328 -19.109537926685583  0.
-1.5951349479558619 -19.118899195933842  0.
-2.662713834464312 -19.137621731841115  0.
2.7089789514001708 -20.217358882980626  0.
1.622894018687009 -20.199621743810763  0.
0.5405491105456953 -20.190753177873596  0.
-0.5405491178228978 -20.190753183656962  0.
-1.622894018461652 -20.19962175680361  0.
-2.7089789506573214 -20.217358895801304  0.
2.7527432584579663 -21.315101921532495  0.
1.64915259906871 -21.298350177642213  0.
0.5493019627542165 -21.28997431369505  0.
-0.5493019857960482 -21.28997432545576  0.
-1.6491525986247935 -21.298350203976774  0.
-2.7527432445073874 -21.31510194502256  0.
2.794006760954019 -22.429850519765864  0.
1.6739106891289945 -22.414084168627735  0.
0.5575546433406832 -22.406201006405826  0.
-0.5575546985239367 -22.40620102386069  0.
-1.6739106885070754 -22.4140842074915  0.
-2.794006708581254 -22.429850548057946  0.
2.8327694703009008 -23.560604368220456  0.
1.697168288592236 -23.54582340504579  0.
0.5653071526062521 -23.53843293584233  0.
-0.5653072557052075 -23.538432945300794  0.
-1.6971682883844093 -23.54582342533365  0.
-2.8327693314656512 -23.560604360631547  0.
2.8690313940123535 -24.706363186470583  0.
1.7189253966651254 -24.69256760504549  0.
0.5725595090410979 -24.68566979514769  0.
-0.5725596388453296 -24.68566974290406  0.
-1.7189253990476128 -24.69256748561569  0.
-2.869031105647678 -24.70636300942727  0.
2.9027925032932944 -25.866126744684554  0.
1.739182011571596 -25.85331654476452  0.
0.5793117855931608 -25.84691130339299  0.
-0.5793117749690064 -25.84691104389864  0.
-1.7391820222484464 -25.85331595845343  0.
-2.902792059943443 -25.866126070516753  0.
2.934052643242733 -27.038894866647833  0.
1.7579381302398458 -27.027070079387677  0.
0.5855641805040099 -27.02115721526679  0.
-0.5855634657280712 -27.021156439979144  0.
-1.7579381609353248 -27.027068334915224  0.
-2.9340523493896447 -27.038893066344095  0.
2.9628113387066035 -28.223667330332624  0.
1.7751937494915682 -28.212828082599835  0.
0.5913171150714895 -28.20740729458585  0.
-0.5913142896389068 -28.207405513716658  0.
-1.7751938179066222 -28.212824087749173  0.
-2.9628124496740886 -28.223663565466985  0.
2.9890674767532657 -29.41944345264156  0.
1.7909488727567566 -29.409590093313884  0.
0.596571261387089 -29.40466115736674  0.
-0.5965635755088453 -29.404657993745168  0.
-1.7909489896259112 -29.409583025725386  0.
-2.9890734747376624 -29.419437600030335  0.
3.012819028338343 -30.625220928376194  0.
1.8052035334487833 -30.61635420837104  0.
0.6013271499095604 -30.611917771450454  0.
-0.6013108036297677 -30.61191424392119  0.
-1.8052036499429904 -30.616346405415413  0.
-3.0128374493163332 -30.62521683542741  0.
3.034063569057719 -31.83999331558285  0.
1.8179578600080823 -31.832114433684048  0.
0.6055834490393643 -31.828174263655054  0.
-0.6055573629661976 -31.828176413410617  0.
-1.8179577264427844 -31.83211958582301  0.
-3.0341067463106604 -31.840007106414518  0.
3.0528017510427428 -33.06274577581891  0.
1.8292122333476293 -33.05585579109192  0.
0.6093320556179915 -33.05242364498855  0.
-0.6093115551389047 -33.05245062919461  0.
-1.8292110852250583 -33.05591689521698  0.
-3.0528804196787362 -33.06282260442955  0.
3.0690488779372593 -34.292451195604976  0.
1.8389674462921473 -34.28654780494011  0.
0.6125470408171567 -34.283652459402994  0.
-0.6125994386768202 -34.28374974625913  0.
-1.8389635737269316 -34.28676763014914  0.
-3.069142206158105 -34.292689078941706  0.
3.08286308283595 -35.5280728786614  0.
1.847223771233447 -35.52314532391596  0.
0.6151646921453316 -35.52084216938054  0.
-0.615481970847545 -35.52109606539432  0.
-1.8472140119799803 -35.52371345255651  0.
-3.082832723489063 -35.52863554531369  0.
3.0944111439802393 -36.76861049299348  0.
1.8539711625988284 -36.76461343374574  0.
0.6170554000342081 -36.76300277098574  0.
-0.6180615075200653 -36.763513203352886  0.
-1.8539542299719523 -36.7657714400069  0.
-3.093800597852061 -36.769637805451026  0.
3.1040674581312273 -38.01318730795844  0.
1.8591406546210718 -38.01009868854359  0.
0.6180187683085752 -38.00924408403808  0.
-0.6204269509200258 -38.010023749604194  0.
-1.8591259832861156 -38.01178444439351  0.
-3.1017820775690765 -38.01446203104242  0.
3.1127461381301664 -39.26181989119217  0.
1.8624491055072507 -39.25915036929272  0.
0.6178735250764197 -39.259180525277735  0.
-0.6223074466268302 -39.25941064422217  0.
-1.8625843538178097 -39.26010331953418  0.
-3.1065380622919676 -39.2614154004362  0.
3.1212819808878254 -40.51503771738352  0.
1.86296208450328 -40.51444853854015  0.
0.6179303757221964 -40.511968823346145  0.
-0.6229002992306145 -40.509455167073675  0.
-1.864168390697638 -40.5082966106501  0.
-3.1083392388098714 -40.50829443179823  0.
3.1319465022641584 -41.79898814733385  0.
1.8669993285851867 -41.77509135479972  0.
0.6205578813602892 -41.762017885566465  0.
-0.6218024967312977 -41.75577706953505  0.
-1.8642683222963112 -41.753719390854265  0.
-3.108585284101002 -41.753463885619894  0.
</DataArray>
<DataArray type="Float64" Name="Nodal_sigma_xx" NumberOfComponents="1" format="ascii" >
0.056571829042054815 
0.041442862823171056 
0.013156948302142823 
-0.013156948302146122 
-0.041442862823174574 
-0.056571829042058555 
0.0552343208038789 
0.04133614388667894 
0.013718983484738632 
-0.013718983484742056 
-0.04133614388668242 
-0.055234320803882436 
0.05354075793798967 
0.04067441321102411 
0.013904034242028386 
-0.013904034242031942 
-0.04067441321102754 
-0.053540757937992976 
0.052674157280352324 
0.03964862367947605 
0.013311545039298994 
-0.013311545039302541 
-0.03964862367947946 
-0.05267415728035564 
0.05161840901566241 
0.03874447397162122 
0.012935269463789135 
-0.012935269463792653 
-0.03874447397162469 
-0.05161840901566585 
0.050513925840096646 
0.03788845038402835 
0.012631487463979164 
-0.012631487463982637 
-0.03788845038403184 
-0.050513925840100116 
0.04939345431745877 
0.03704480475530032 
0.012348077596570079 
-0.012348077596573553 
-0.03704480475530382 
-0.04939345431746226 
0.04827089385096206 
0.0362029182002425 
0.012067471274760601 
-0.012067471274764107 
-0.03620291820024602 
-0.04827089385096557 
0.047148207088752794 
0.03536108536384068 
0.01178698181946344 
-0.01178698181946686 
-0.035361085363844136 
-0.04714820708875625 
0.046025596029749885 
0.03451918471867105 
0.01150638670379525 
-0.011506386703798666 
-0.03451918471867447 
-0.04602559602975331 
0.0449030133988184 
0.033677259177725696 
0.011225752478315617 
-0.01122575247831907 
-0.03367725917772913 
-0.04490301339882187 
0.04378043731679418 
0.03283532825944154 
0.01094510960104356 
-0.010945109601046997 
-0.03283532825944489 
-0.043780437316797566 
0.04265786207170491 
0.031993396687715225 
0.010664465651861917 
-0.010664465651865289 
-0.031993396687718646 
-0.04265786207170842 
0.04153528681389067 
0.031151465143136346 
0.010383821736190315 
-0.01038382173619333 
-0.03115146514313995 
-0.04153528681389464 
0.0404127115114893 
0.030309533638506563 
0.010103177882761457 
-0.010103177882763825 
-0.030309533638510307 
-0.04041271151149388 
0.03929013619469398 
0.029467602146154053 
0.009822534048806902 
-0.009822534048808396 
-0.0294676021461582 
-0.03929013619469993 
0.03816756087506287 
0.028625670656115407 
0.009541890218583976 
-0.009541890218584656 
-0.028625670656119685 
-0.03816756087507005 
0.037044985555144724 
0.02778373916629052 
0.009261246388717202 
-0.009261246388719795 
-0.027783739166293526 
-0.03704498555514937 
0.03592241023526649 
0.02694180767643209 
0.008980602558793021 
-0.008980602558808224 
-0.026941807676430243 
-0.035922410235255685 
0.034799834915430386 
0.026099876186556438 
0.008699958728820898 
-0.0086999587288757 
-0.02609987618654022 
-0.03479983491536973 
0.03367725959563746 
0.025257944696684374 
0.008419314898812178 
-0.008419314898961125 
-0.025257944696635056 
-0.0336772595954548 
0.032554684275901136 
0.024416013206823906 
0.00813867106876183 
-0.00813867106908511 
-0.02441601320671645 
-0.0325546842754857 
0.031432108956201694 
0.023574081716965838 
0.007858027238690684 
-0.00785802723922962 
-0.02357408171679542 
-0.03143210895548021 
0.030309533636363434 
0.022732150227053032 
0.007577383408744113 
-0.0075773834092499 
-0.022732150226929496 
-0.030309533635613596 
0.029186958315775828 
0.02189021873690631 
0.007296739579406366 
-0.0072967395786615544 
-0.02189021873729753 
-0.02918695831649601 
0.028064382992887563 
0.0210482872461009 
0.007016095751877223 
-0.007016095746264458 
-0.021048287248324186 
-0.028064382999679248 
0.02694180766460664 
0.020206355753852902 
0.006735451928486953 
-0.006735451909728865 
-0.020206355760793812 
-0.026941807688255145 
0.02581923232650536 
0.019364424259200992 
0.006454808112411227 
-0.006454808065878479 
-0.019364424275667504 
-0.025819232386652232 
0.024696656976743763 
0.01852249276232945 
0.00617416430438575 
-0.006174164213977706 
-0.018522492792760824 
-0.024696657096709883 
0.02357408163083144 
0.017680561268957312 
0.005893520490936 
-0.005893520367501603 
-0.017680561306354918 
-0.023574081802917805 
0.022451506360795504 
0.016838629801178395 
0.00561287661395456 
-0.005612876584556923 
-0.01683862979435563 
-0.02245150643324957 
0.021328931376599653 
0.015996698418421725 
0.0053322325090319105 
-0.005332233029554231 
-0.01599669819733493 
-0.021328930777741374 
0.020206357151504366 
0.015154767245802284 
0.0050515878144256 
-0.005051590064240572 
-0.015154766390180766 
-0.02020635436312939 
0.019083784505745438 
0.0143128364798672 
0.004770941923482312 
-0.004770948295288286 
-0.014312834176357562 
-0.01908377636916289 
0.017961214294816945 
0.013470906264980965 
0.004490294264114844 
-0.004490308294823061 
-0.01347090141152659 
-0.01796119594032235 
0.016838645720131794 
0.012628976165392162 
0.0042096456712921795 
-0.004209669227742988 
-0.012628968531361457 
-0.01683861387530511 
0.015716071135355357 
0.011787043677350548 
0.003929002470830377 
-0.003929024766447867 
-0.011787038038510497 
-0.01571603782181024 
0.014593463861693202 
0.010945100966096242 
0.003648385830517751 
-0.0036483537330238304 
-0.010945117761366816 
-0.01459349446614975 
0.013470755975277186 
0.010103129416742983 
0.0033678483043576134 
-0.0033676035377537025 
-0.010103226291998425 
-0.013471051757983 
0.012347811825730349 
0.009261094596842167 
0.003087492120624935 
-0.003086671910540125 
-0.009261398033491937 
-0.01234884537260774 
0.011224436309932712 
0.008418954200869374 
0.002807457408947987 
-0.0028054191731500177 
-0.008419675563915985 
-0.011227070055441997 
0.010100544143695414 
0.007576716931105493 
0.0025277807429239345 
-0.002523813003439075 
-0.0075780528147733894 
-0.010105807855336334 
0.008976801893343947 
0.006734637559320126 
0.002247887272690766 
-0.002242449057650472 
-0.006736288219364365 
-0.00898437700334256 
0.007856324605759475 
0.005893704753178221 
0.0019652714726979023 
-0.001963896620559569 
-0.005893433775578223 
-0.00785961626523847 
0.006748340562869629 
0.005056503816308237 
0.0016727398465338685 
-0.0016953426009159213 
-0.005046910127968921 
-0.0067223224307851066 
0.005673892517449545 
0.004228203704196534 
0.001353820092423386 
-0.0014520120023413954 
-0.004190766351148876 
-0.005552383403711714 
0.00467377453038971 
0.0034137676546767883 
0.0009769598709734482 
-0.0012552381583839016 
-0.0033138471361695084 
-0.004317058992588184 
0.003794285503294678 
0.0026079398709451477 
0.0004982702759769016 
-0.00110968278490078 
-0.0023954130276253116 
-0.0029965141720908767 
0.003073454884219118 
0.0017330886259710675 
-9.895958553498202e-05 
-0.0009006509561493247 
-0.001437767856575273 
-0.0016648753396448777 
0.0018678548298004629 
0.0007827585145858107 
-0.0003592775964573854 
-0.00048523176141395996 
-0.0005746498184443842 
-0.000595053506346778 
0.0009784455453596256 
0.0003047997992722842 
-0.00029306389783742196 
-0.00021721679821649076 
-0.00019615887484470505 
-0.00017516600211621523 
</DataArray>
<DataArray type="Float64" Name="Nodal_sigma_yy" NumberOfComponents="1" format="ascii" >
0.013705898645385522 
0.01056676653655034 
0.0037138172138572903 
-0.003713817213858418 
-0.010566766536551402 
-0.013705898645386544 
0.0064758782171382145 
0.005456097412532087 
0.002218158303962774 
-0.002218158303963565 
-0.005456097412532732 
-0.006475878217138743 
-0.00037943875241314845 
7.107856115527917e-05 
0.00026079793736177485 
-0.00026079793736205294 
-7.10785611554032e-05 
0.0003794387524131424 
-4.765704556729082e-05 
-0.00015735009199918182 
-0.0001335215692155505 
0.00013352156921550974 
0.00015735009199917575 
4.765704556730383e-05 
-5.178949381866131e-05 
-6.820263031104344e-05 
-4.2307883401709206e-05 
4.2307883401718964e-05 
6.820263031102176e-05 
5.178949381861274e-05 
-7.82113174482759e-06 
-1.4391223258758802e-05 
-1.0480657386327335e-05 
1.0480657386343598e-05 
1.4391223258716735e-05 
7.82113174478162e-06 
-1.2937321000458177e-06 
-1.933665199491813e-06 
-1.2867991494615858e-06 
1.2867991494528038e-06 
1.9336651994462765e-06 
1.2937321000015822e-06 
7.403903691527436e-08 
4.273506853773312e-08 
5.715550075759135e-09 
-5.715550131703967e-09 
-4.273506860712206e-08 
-7.403903695950981e-08 
6.47533749719223e-08 
1.0029811239897247e-07 
6.792142494846474e-08 
-6.792142490466297e-08 
-1.0029811244212372e-07 
-6.475337500401468e-08 
2.1485880549558523e-08 
3.2656306383008205e-08 
2.1913366124546186e-08 
-2.1913366068709774e-08 
-3.2656306363709406e-08 
-2.1485880557364778e-08 
3.872043822725213e-09 
6.332802020194567e-09 
4.3967800815100655e-09 
-4.39678008389531e-09 
-6.3328019991610446e-09 
-3.872043885175258e-09 
3.715861238498541e-10 
6.401947244896733e-10 
4.544015667754843e-10 
-4.544017182385278e-10 
-6.401946934814912e-10 
-3.715861420644506e-10 
-6.237982699830447e-11 
-7.949394181111513e-11 
-4.8304214848946675e-11 
4.8303752653560544e-11 
7.949386266435654e-11 
6.237984694762444e-11 
-3.738566400901533e-11 
-5.664628770392366e-11 
-3.7953645028220365e-11 
3.795298447804678e-11 
5.664592991720674e-11 
3.738551222071118e-11 
-9.953701057829889e-12 
-1.557502802944366e-11 
-1.0598340916901164e-11 
1.0597548744583837e-11 
1.557455358257298e-11 
9.953682843233391e-12 
-1.6162409952058532e-12 
-2.646350152901711e-12 
-1.838153137730461e-12 
1.8380414106965864e-12 
2.646238480077945e-12 
1.616547173899363e-12 
-8.789843852774482e-14 
-1.7249548144027127e-13 
-1.2711026350399612e-13 
1.3169660132393568e-13 
1.7478054593900172e-13 
8.903988657493755e-14 
4.768147682243651e-14 
6.917686909413412e-14 
5.100190018578199e-14 
-3.2032590555758356e-14 
-5.963046896539925e-14 
-4.3864217813549544e-14 
2.4815219323848225e-14 
4.293397234955698e-14 
4.566231290650813e-14 
5.282720875326996e-15 
-1.698381019155093e-14 
-1.426116169600533e-14 
1.5665420349808556e-14 
3.509258855727282e-14 
5.86638485185198e-14 
4.871412518162033e-14 
2.086416976687655e-14 
7.108029442814967e-15 
1.980273584001324e-14 
4.6769229114507205e-14 
8.553501331699798e-14 
8.411481689125921e-14 
4.4924025437154125e-14 
1.8952721336784606e-14 
1.9805337925227207e-14 
3.973958748876294e-14 
6.436986902703945e-14 
6.451699526184573e-14 
4.003503258076524e-14 
2.010197563961924e-14 
-2.0084628404859473e-14 
-7.718023269098762e-14 
-1.7977755243682447e-13 
-1.7923707765384045e-13 
-7.66614419514533e-14 
-2.0127996491758893e-14 
-1.8379221755626673e-13 
-5.163384910605862e-13 
-1.057841504279941e-12 
-1.0575135331227642e-12 
-5.160946539919942e-13 
-1.8396048573343649e-13 
-6.364700433358905e-13 
-1.681825577241891e-12 
-3.333391613950798e-12 
-3.3333742667160382e-12 
-1.6818112657732143e-12 
-6.364761148680564e-13 
-1.6145596144767627e-12 
-4.106042437480861e-12 
-7.958105447411837e-12 
-7.957888498557122e-12 
-4.1057868910288065e-12 
-1.6144824192820817e-12 
-3.212678820890824e-12 
-7.840189977272038e-12 
-1.4811544026861745e-11 
-1.481168887627199e-11 
-7.839883798578529e-12 
-3.211776764683316e-12 
-4.5867116528486296e-12 
-1.0337875954585796e-11 
-1.8489704288037617e-11 
-1.8490086902984287e-11 
-1.0338222357179905e-11 
-4.5866392281435076e-12 
-1.8539102544790076e-12 
-1.0737892779805192e-12 
2.164375043122238e-12 
2.164070924412856e-12 
-1.0745331490910615e-12 
-1.854789759281328e-12 
1.6272274326600833e-11 
4.918900291424333e-11 
1.0443722056325926e-10 
1.0443661275952136e-10 
4.91883395993542e-11 
1.627216330429837e-11 
7.517371490919911e-11 
2.0378306323214773e-10 
4.0966081812617364e-10 
4.096605375346514e-10 
2.0378318097650366e-10 
7.517451158095545e-11 
2.1869880906244532e-10 
5.665756556407983e-10 
1.1102271218522714e-09 
1.1102295255284878e-09 
5.665792525899258e-10 
2.187011956082674e-10 
4.921646879103847e-10 
1.2282800102535185e-09 
2.3533361956742417e-09 
2.3533500999165825e-09 
1.2282998121219968e-09 
4.921764831626596e-10 
8.511974619075657e-10 
2.0167674370796806e-09 
3.7362324751378335e-09 
3.7362740214398225e-09 
2.016829289404158e-09 
8.512380739525427e-10 
8.824421089681511e-10 
1.7688498013318163e-09 
2.8738901163081598e-09 
2.8738934473024943e-09 
1.7688643234609752e-09 
8.824644912377999e-10 
-8.500768882216403e-10 
-3.311590862805063e-09 
-7.759818849062319e-09 
-7.76067441928853e-09 
-3.312805883998529e-09 
-8.507957901561503e-10 
-7.99214866595982e-09 
-2.2499975678446932e-08 
-4.6146796995640005e-08 
-4.6153078808546227e-08 
-2.2509142461176954e-08 
-7.997918605607418e-09 
-2.780469961281666e-08 
-7.352308590934239e-08 
-1.4579070021341343e-07 
-1.4581819284539084e-07 
-7.356378603110914e-08 
-2.783111459239533e-08 
-7.067006303610769e-08 
-1.7981878384671236e-07 
-3.486304569049343e-07 
-3.486956353874999e-07 
-1.799191017625248e-07 
-7.074034190260141e-08 
-1.4100141740975257e-07 
-3.441990624845361e-07 
-6.503251413850908e-07 
-6.502139812361883e-07 
-3.440550739356959e-07 
-1.4093576060987718e-07 
-2.0278614337710353e-07 
-4.572467996453219e-07 
-8.166565104504277e-07 
-8.144257069258291e-07 
-4.540633184100238e-07 
-2.0088078795570466e-07 
-9.126913969384476e-08 
-6.481294865124526e-08 
7.285568868446187e-08 
8.655181559533918e-08 
-4.459270573284324e-08 
-7.822090767879535e-08 
6.843056573650145e-07 
2.099033840188445e-06 
4.516657060909027e-06 
4.569792030264646e-06 
2.1772498385709365e-06 
7.344677154187598e-07 
3.2102090260768476e-06 
8.830551300249818e-06 
1.7851506623198338e-05 
1.7936100237812285e-05 
8.972534700013156e-06 
3.3249885963756304e-06 
9.882810879627128e-06 
2.514307348116035e-05 
4.8823821497437245e-05 
4.8360244082251756e-05 
2.4457050051379572e-05 
9.437918850436545e-06 
2.3371675989040572e-05 
5.781203855634767e-05 
0.00010592667068187694 
0.000100283149617868 
5.0054496910254134e-05 
1.9143634824871384e-05 
5.6147524874592455e-05 
0.00011106110155344577 
0.0001778661732114298 
0.00014968838586226478 
6.703831113503227e-05 
2.44575187360955e-05 
6.714668419293893e-05 
0.00015293325572523418 
0.00017599174081337805 
6.870354055230592e-05 
1.2931541312967854e-05 
1.7196558905504915e-06 
0.0002489441045269894 
-8.445195515825553e-06 
-0.0003677122615609067 
-0.00039354415204429947 
-0.00019705437136575672 
-7.661046620608728e-05 
-0.0029719251826289287 
-0.0028230959182294953 
-0.002213818893890675 
-0.0012714354007132128 
-0.000467492364568755 
-0.00014548506166237225 
-0.0063876704012076355 
-0.005466409879581658 
-0.0035541272990180766 
-0.0017861910882827994 
-0.0005839232734769409 
-0.00015856961046875612 
</DataArray>
<DataArray type="Float64" Name="Nodal_sigma_xy" NumberOfComponents="1" format="ascii" >
-0.004650463762471164 
-0.0020721461768110723 
0.0013973780580427547 
0.0013973780580425945 
-0.002072146176811555 
-0.004650463762471808 
-0.0023605983290970857 
-0.001547368387859569 
-0.000272332447595982 
-0.0002723324475960968 
-0.0015473683878598568 
-0.002360598329097432 
-0.0001934526513832474 
-0.000977678603004058 
-0.0019255950713086734 
-0.0019255950713087005 
-0.000977678603004085 
-0.00019345265138324757 
-0.0004321029083808764 
-0.0009791221877060146 
-0.001804826358107972 
-0.0018048263581079524 
-0.0009791221877059704 
-0.0004321029083808269 
-0.0005860530575596981 
-0.0010390723306735617 
-0.0016679011405509971 
-0.0016679011405509785 
-0.0010390723306735218 
-0.0005860530575596565 
-0.0006309448315124199 
-0.0010558506717430426 
-0.0016286769125051354 
-0.0016286769125051235 
-0.0010558506717430194 
-0.0006309448315123978 
-0.0006384650137850145 
-0.0010593976297992571 
-0.0016213698633126133 
-0.0016213698633126034 
-0.0010593976297992305 
-0.0006384650137849814 
-0.0006390001887277203 
-0.0010597499460323475 
-0.0016207499596081463 
-0.0016207499596081624 
-0.0010597499460323597 
-0.0006390001887277119 
-0.0006388204258137713 
-0.0010597167692289874 
-0.001620873017868465 
-0.0016208730178684928 
-0.0010597167692290277 
-0.0006388204258137974 
-0.0006387358336249308 
-0.0010596876579479389 
-0.0016209444252439367 
-0.001620944425243925 
-0.0010596876579479259 
-0.0006387358336249281 
-0.0006387152576700811 
-0.001059679557619134 
-0.0016209628135502084 
-0.0016209628135501876 
-0.0010596795576190935 
-0.000638715257670042 
-0.0006387122395724698 
-0.0010596781346667726 
-0.0016209657455513494 
-0.001620965745551323 
-0.0010596781346667245 
-0.0006387122395724254 
-0.0006387121693659725 
-0.0010596780336890148 
-0.0016209658816324392 
-0.001620965881632345 
-0.0010596780336888816 
-0.0006387121693658942 
-0.0006387122868279859 
-0.0010596780651783593 
-0.0016209657914123539 
-0.0016209657914121006 
-0.001059678065177916 
-0.000638712286827605 
-0.0006387123299333756 
-0.001059678080681505 
-0.0016209657543569517 
-0.0016209657543564716 
-0.0010596780806805788 
-0.0006387123299324835 
-0.0006387123391141427 
-0.001059678084469914 
-0.0016209657459783206 
-0.0016209657459777729 
-0.0010596780844687246 
-0.0006387123391128593 
-0.0006387123402215485 