<?xml version="1.0"?>
<VTKFile type="UnstructuredGrid" version="0.1" byte_order="LittleEndian" compressor="vtkZLibDataCompressor">
<UnstructuredGrid>
<Piece NumberOfPoints="306" NumberOfCells="250">
<PointData>
<DataArray type="Float64" Name="displacement" NumberOfComponents="3" format="ascii" >
0.0 0.0  0.
0.0 0.0  0.
0.0 0.0  0.
0.0 0.0  0.
0.0 0.0  0.
0.0 0.0  0.
0.005160717287281568 -0.0034735273569975736  0.
0.002681206566083537 -0.0012190378416834652  0.
0.000882663105699937 -0.000336328484537581  0.
-0.0008826631057017852 -0.0003363284845379034  0.
-0.002681206566085434 -0.0012190378416845184  0.
-0.005160717287284038 -0.0034735273569997446  0.
0.010390514466668282 -0.00683726749475103  0.
0.006013742346007961 -0.0047447961823825135  0.
0.0019437296876685182 -0.003616087313017623  0.
-0.0019437296876725916 -0.003616087313018152  0.
-0.0060137423460122135 -0.004744796182384158  0.
-0.010390514466672903 -0.0068372674947537555  0.
0.015580587460133473 -0.012276639759675982  0.
0.009214754230954263 -0.010197608274008887  0.
0.0030427201645189393 -0.009140911413411995  0.
-0.0030427201645254216 -0.0091409114134126  0.
-0.009214754230960874 -0.010197608274010683  0.
-0.015580587460140252 -0.012276639759678921  0.
0.020716157237665293 -0.019763117324670024  0.
0.0123159554061344 -0.017736916651728604  0.
0.004084368184590127 -0.016718507963178236  0.
-0.004084368184599024 -0.01671850796317884  0.
-0.012315955406143376 -0.01773691665173039  0.
-0.020716157237674313 -0.019763117324672962  0.
0.025751099498529245 -0.02929444432824469  0.
0.015339693689678387 -0.02731318287017184  0.
0.005094448661444252 -0.02632197797212969  0.
-0.0050944486614555315 -0.026321977972130272  0.
-0.015339693689689703 -0.027313182870173588  0.
-0.02575109949854059 -0.029294444328247616  0.
0.030676976590571985 -0.04082013181482252  0.
0.018295230982565858 -0.038883282771684596  0.
0.006079895015518728 -0.037914843732964484  0.
-0.00607989501553236 -0.03791484373296507  0.
-0.01829523098257952 -0.038883282771686345  0.
-0.030676976590585686 -0.04082013181482543  0.
0.03549213652042612 -0.054294603700797237  0.
0.021184203022129085 -0.05240179600626736  0.
0.007042895133800424 -0.05145542247198034  0.
-0.007042895133816401 -0.05145542247198094  0.
-0.021184203022145097 -0.052401796006269125  0.
-0.03549213652044218 -0.05429460370080018  0.
0.04019653698937519 -0.0696730372175621  0.
0.02400680027873429 -0.06782424748643734  0.
0.007983749644532148 -0.0668998623494166  0.
-0.007983749644550482 -0.06689986234941722  0.
-0.024006800278752655 -0.06782424748643917  0.
-0.04019653698939359 -0.06967303721756508  0.
0.04479022202707894 -0.08691108445280671  0.
0.02676300238796082 -0.08510631089192965  0.
0.008902479780569579 -0.08420392619561817  0.
-0.008902479780590274 -0.08420392619561878  0.
-0.02676300238798153 -0.08510631089193148  0.
-0.04479022202709967 -0.08691108445280969  0.
0.04927321116360087 -0.10596446218029718  0.
0.029452794817923747 -0.1042037068141943  0.
0.009799076406801829 -0.10332332936603825  0.
-0.009799076406824866 -0.10332332936603886  0.
-0.02945279481794679 -0.10420370681419612  0.
-0.04927321116362394 -0.10596446218030017  0.
0.0536455086608411 -0.1267888960383182  0.
0.03207617337054215 -0.1250721594226783  0.
0.010673535822251678 -0.12421379110185557  0.
-0.01067353582227706 -0.12421379110185621  0.
-0.03207617337056752 -0.1250721594226801  0.
-0.0536455086608665 -0.1267888960383212  0.
0.05790711511804551 -0.14934011046284515  0.
0.034633137311927104 -0.14766739272400917  0.
0.011525857139785623 -0.14683103383879606  0.
-0.011525857139813312 -0.14683103383879664  0.
-0.03463313731195481 -0.14766739272401094  0.
-0.05790711511807327 -0.1493401104628481  0.
0.06205803053517091 -0.17357382924364007  0.
0.0371236865825478 -0.1719451303946566  0.
0.01235604023613179 -0.17113078096545156  0.
-0.012356040236161752 -0.1711307809654522  0.
-0.03712368658257786 -0.17194513039465834  0.
-0.06205803053520097 -0.17357382924364304  0.
0.06609825488547447 -0.19944577598161684  0.
0.039547821196557094 -0.1978610960216917  0.
0.013164085109370303 -0.1970687560408443  0.
-0.013164085109402488 -0.19706875604084484  0.
-0.03954782119658949 -0.19786109602169338  0.
-0.066098254885507 -0.19944577598161978  0.
0.07002778815970684 -0.22691167424667064  0.
0.04190554116145906 -0.2253710131748445  0.
0.013949991764703983 -0.22460068263884952  0.
-0.013949991764738314 -0.22460068263885014  0.
-0.04190554116149376 -0.22537101317484623  0.
-0.07002778815974187 -0.22691167424667358  0.
0.07384663035597351 -0.25592724760638585  0.
0.044196846479165344 -0.2544306054223806  0.
0.014713760203975433 -0.25368228433039103  0.
-0.014713760204011864 -0.25368228433039175  0.
-0.04419684647920229 -0.25443060542238255  0.
-0.07384663035601127 -0.255927247606389  0.
0.07755478147405423 -0.28644821962906214  0.
0.046421737149978666 -0.28499559633282595  0.
0.01545539042757462 -0.28426928468471646  0.
-0.015455390427613487 -0.2842692846847176  0.
-0.04642173715001777 -0.28499559633282895  0.
-0.0775547814740949 -0.2864482196290665  0.
0.08115224151396247 -0.31843031388334064  0.
0.04858021317391387 -0.3170217094748686  0.
0.016174882435548203 -0.3163174072706363  0.
-0.01617488243559103 -0.3163174072706391  0.
-0.048580213173955084 -0.31702170947487524  0.
-0.08115224151400549 -0.31843031388334875  0.
0.08463901047571436 -0.351829253937947  0.
0.05067227455096206 -0.35046466841723956  0.
0.016872236227892887 -0.3497823756568901  0.
-0.016872236227944055 -0.34978237565689624  0.
-0.05067227455100536 -0.35046466841725377  0.
-0.08463901047575631 -0.35182925393796194  0.
0.0880150883593177 -0.38660076336162075  0.
0.05269792128111967 -0.38528019672867725  0.
0.01754745180460342 -0.38461991341221335  0.
-0.017547451804672227 -0.384619913412225  0.
-0.052697921281164926 -0.3852801967287038  0.
-0.08801508835934838 -0.3866007633616452  0.
0.09128047516478058 -0.4227005657231057  0.
0.054657153364385744 -0.421424017977924  0.
0.018200529165676056 -0.42078574410534575  0.
-0.018200529165777676 -0.4207857441053621  0.
-0.05465715336443306 -0.4214240179779609  0.
-0.09128047516477528 -0.42270056572313286  0.
0.09443517089211365 -0.4600843845911595  0.
0.05654997080075973 -0.4588518557337348  0.
0.01883146831111181 -0.45823559130503294  0.
-0.018831468311258936 -0.4582355913050392  0.
-0.05654997080080995 -0.4588518557337488  0.
-0.09443517089202684 -0.4600843845911468  0.
0.09747917554132177 -0.498707943534567  0.
0.05837637359024111 -0.4975194335648941  0.
0.01944026924093101 -0.49692517858003354  0.
-0.019440269241095792 -0.4969251785799749  0.
-0.05837637359029647 -0.49751943356476075  0.
-0.097479175541098 -0.4987079435343797  0.
0.10041248911237209 -0.5385269661221598  0.
0.0601363617328282 -0.5373824750402398  0.
0.020026931955208542 -0.5368102294991315  0.
-0.020026931955213247 -0.5368102294988631  0.
-0.06013636173289427 -0.5373824750396353  0.
-0.1004124891120221 -0.5385269661214765  0.
0.10323511160510439 -0.5794971759228177  0.
0.06182993522851849 -0.5783967037286852  0.
0.020591456454141916 -0.5778464676311429  0.
-0.02059145645341398 -0.5778464676303658  0.
-0.061829935228606143 -0.5783967037269393  0.
-0.10323511160495964 -0.5794971759210373  0.
0.10594704301904291 -0.6215742965053593  0.
0.06345709407731019 -0.6205178431991449  0.
0.02113384273814034 -0.6199896165448874  0.
-0.02113384273528891 -0.6199896165431421  0.
-0.06345709407743413 -0.6205178431952348  0.
-0.10594704302038642 -0.6215742965017204  0.
0.10854828335309882 -0.6647140514381206  0.
0.06501783827920926 -0.6637016170201738  0.
0.021654090807831285 -0.6631953998090244  0.
-0.021654090800210336 -0.6631953998060102  0.
-0.06501783827937219 -0.6637016170134455  0.
-0.108548283359392 -0.6647140514326678  0.
0.11103883260534116 -0.7088721642877994  0.
0.06651216783424992 -0.7079037487588538  0.
0.022152200663627834 -0.707419540991561  0.
-0.022152200647765546 -0.7074195409884411  0.
-0.06651216783438652 -0.7079037487519682  0.
-0.11103883262390732 -0.708872164284662  0.
0.11341869077362332 -0.7540043586169761  0.
0.06794008274253827 -0.7530799619781819  0.
0.022628172303940663 -0.7526177636586852  0.
-0.02262817227954373 -0.752617763661726  0.
-0.06794008274237126 -0.7530799619852836  0.
-0.11341869081607964 -0.7540043586325985  0.
0.1156878578592916 -0.8000663579801194  0.
0.06930158300432661 -0.7991859802323142  0.
0.023082005720210273 -0.7987457913726376  0.
-0.023082005704104652 -0.7987457914011022  0.
-0.06930158300307418 -0.7991859802967155  0.
-0.11568785793456299 -0.800066358059489  0.
0.11784633387891985 -0.8470138859202765  0.
0.07059666862008339 -0.8461775270608769  0.
0.023513700886114052 -0.8457593476891451  0.
-0.02351370094777091 -0.8457593477883243  0.
-0.07059666861602688 -0.8461775272841171  0.
-0.11784633396278373 -0.8470138861597664  0.
0.11989411889245867 -0.8948026659764683  0.
0.07182533959039204 -0.8940103259906941  0.
0.023923257739754525 -0.8936141561581064  0.
-0.023923258072440494 -0.89361415641097  0.
-0.0718253395806469 -0.8940103265581436  0.
-0.1198941188407908 -0.8948026665318889  0.
0.12183121305603066 -0.9433884217307005  0.
0.07298759591517824 -0.942640100572268  0.
0.024310676167717638 -0.9422659403396889  0.
-0.024310677191529854 -0.942265940846348  0.
-0.07298759589701091 -0.9426401017057696  0.
-0.12183121241245928 -0.9433884227313278  0.
0.1236576166891198 -0.9927268769594633  0.
0.07408343759111673 -0.9920225745181339  0.
0.024675956033094703 -0.9916704238657517  0.
-0.02467595844195155 -0.9916704246000756  0.
-0.0740834375684521 -0.9920225761519391  0.
-0.12365761435829525 -0.9927268781190717  0.
0.12537333027201955 -1.0427737560016241  0.
0.07511286460515895 -1.0421134720723286  0.
0.025019097371337083 -1.041783330604414  0.
-0.025019101788239455 -1.0417833309415392  0.
-0.0751128646080258 -1.0421134727900647  0.
-0.12537332419798178 -1.0427737554936773  0.
0.12697835408704194 -1.0934847844582598  0.
0.07607587692179567 -1.092868518784725  0.
0.0253401010357888 -1.092560385006094  0.
-0.025340106376845202 -1.0925603825580819  0.
-0.07607587705110908 -1.0928685132076117  0.
-0.1269783416492751 -1.0934847763912627  0.
0.12847268678289883 -1.144815690110171  0.
0.07697247446507659 -1.144243442721566  0.
0.025638970288476674 -1.143957312647126  0.
-0.025638968944571 -1.143957301012294  0.
-0.07697247497256225 -1.1442434164753796  0.
-0.12847266806444488 -1.1448156601675334  0.
0.12985632143943143 -1.1967222029944573  0.
0.0778026571116722 -1.1961939753367619  0.
0.0259157138757 -1.1959298406306533  0.
-0.025915680740893367 -1.1959298063431327  0.
-0.07780265849055043 -1.1961938982767182  0.
-0.1298563103694585 -1.1967221239219026  0.
0.13112923711995625 -1.249160050953542  0.
0.07856642475833205 -1.248675848717194  0.
0.0261703501987785 -1.2484336963764568  0.
-0.026170223358865232 -1.248433618270935  0.
-0.07856642769375725 -1.2486756736704108  0.
-0.13112928952236913 -1.2491598869627916  0.
0.13229138517077865 -1.3020849413096118  0.
0.07926377764383358 -1.3016447799255835  0.
0.026402908222465177 -1.3014246006541905  0.
-0.02640256788207977 -1.3014244630842133  0.
-0.07926378234846349 -1.30164447279361  0.
-0.1322916542101112 -1.302084689228954  0.
0.13334267754904683 -1.3554525098382155  0.
0.0798947174061261 -1.355056422186434  0.
0.026613409585053382 -1.3548582455058458  0.
-0.026612693159468258 -1.3548580952298523  0.
-0.07989472116404199 -1.3550560898605102  0.
-0.13334349224858913 -1.3554523426729974  0.
0.13428301072994173 -1.4092182103958257  0.
0.08045924990427361 -1.408866248287981  0.
0.026801791814994844 -1.4086902417591163  0.
-0.02680066412935964 -1.4086903480114483  0.
-0.08045924076631072 -1.4088664999551392  0.
-0.134284904842497 -1.4092188424675787  0.
0.135112419906243 -1.4633371278611724  0.
0.08095739176883861 -1.463029335132479  0.
0.02696769060810736 -1.4628760190721002  0.
-0.026966853215592244 -1.4628772304074846  0.
-0.08095733507757169 -1.4630320731569963  0.
-0.13511584411798921 -1.4633405505323553  0.
0.13583159053163713 -1.517763807515226  0.
0.08138917579052787 -1.5175000762276458  0.
0.02710995101736517 -1.5173707230600213  0.
-0.027112417975026636 -1.5173750491429858  0.
-0.08138899717264206 -1.5175098392308637  0.
-0.13583558489213862 -1.5177743359856302  0.
0.13644310188833905 -1.5724523726610546  0.
0.08175460524551187 -1.572232215951351  0.
0.02722574665131409 -1.5721292767262651  0.
-0.027240052970039633 -1.5721405311340297  0.
-0.08175417408519353 -1.5722573762920835  0.
-0.13644150401544416 -1.5724772127271665  0.
0.13695433530113071 -1.6273585513623692  0.
0.0820532111953308 -1.6271799452117444  0.
0.02730934573294983 -1.6271078628296087  0.
-0.02735426606713931 -1.6271304653983436  0.
-0.08205250404556397 -1.6272311919309033  0.
-0.13692693354079674 -1.6274038636820514  0.
0.13738182865815873 -1.6824435357646919  0.
0.08228190473179524 -1.682305459951235  0.
0.02735192771245308 -1.6822670577773562  0.
-0.02745894661664287 -1.682301594553232  0.
-0.08228142100617296 -1.6823801338994462  0.
-0.13728025240795164 -1.682499753010647  0.
0.13776595624371685 -1.7377080102427704  0.
0.08242817924520639 -1.737588760207586  0.
0.02734564122515237 -1.7375897018262272  0.
-0.027542088597301027 -1.7376001091609037  0.
-0.08243452142690974 -1.7376312996870935  0.
-0.1374908789558556 -1.7376900308413832  0.
0.13814290694105746 -1.7931751724533544  0.
0.0824513003656388 -1.7931480660128025  0.
0.027348618450601762 -1.7930387368842167  0.
-0.027568092980320532 -1.7929278921838103  0.
-0.0825046036947473 -1.792876876453149  0.
-0.1375706882073043 -1.7928769831186133  0.
0.13861656646692835 -1.8500028406562363  0.
0.08263236267153513 -1.8489458153404148  0.
0.027466226811757352 -1.8483668312568537  0.
-0.02751887541665102 -1.8480902022265941  0.
-0.08250888703914691 -1.8479989753682746  0.
-0.13758159793091432 -1.8479876545898322  0.
</DataArray>
<DataArray type="Float64" Name="Nodal_sigma_xx" NumberOfComponents="1" format="ascii" >
0.005168176209691415 
0.0037689158520606333 
0.0011848277472143011 
-0.0011848277472168087 
-0.003768915852063341 
-0.005168176209694313 
0.004812817651414924 
0.0036063042258961857 
0.0011998954001880852 
-0.0011998954001906537 
-0.003606304225898798 
-0.004812817651417566 
0.004442944124527873 
0.003388852192765188 
0.0011673801305005973 
-0.0011673801305032057 
-0.0033888521927676867 
-0.004442944124530269 
0.004381898868605093 
0.0032945010600687755 
0.0011035516257655836 
-0.0011035516257681445 
-0.0032945010600712544 
-0.004381898868607511 
0.004290750166949231 
0.003219828881167265 
0.001074453797692019 
-0.0010744537976945347 
-0.0032198288811697436 
-0.004290750166951679 
0.004199593531721281 
0.0031496984542303255 
0.0010499016883690612 
-0.0010499016883715518 
-0.003149698454232804 
-0.004199593531723752 
0.004106339186816062 
0.003079706056767759 
0.0010265364633591087 
-0.0010265364633615884 
-0.003079706056770241 
-0.004106339186818544 
0.004012855143141855 
0.003009620293230341 
0.0010031927216587974 
-0.0010031927216612724 
-0.0030096202932328245 
-0.004012855143144336 
0.003919321040686759 
0.002939486476348324 
0.0009798259560043303 
-0.0009798259560067958 
-0.0029394864763507976 
-0.003919321040689231 
0.00382579008405142 
0.002869341983346836 
0.0009564469413205153 
-0.0009564469413229587 
-0.0028693419833492927 
-0.0038257900840538888 
0.0037322611564215066 
0.0027991958815244498 
0.0009330653033130889 
-0.0009330653033155208 
-0.002799195881526893 
-0.0037322611564239595 
0.003638732963723029 
0.0027290497527242634 
0.0009096832708621501 
-0.0009096832708645698 
-0.002729049752726714 
-0.003638732963725487 
0.003545204900729018 
0.002658903685336565 
0.0008863012349714663 
-0.0008863012349738608 
-0.0026589036853390128 
-0.0035452049007314835 
0.003451676851659486 
0.0025887576406609914 
0.0008629192148306735 
-0.0008629192148330263 
-0.0025887576406634374 
-0.003451676851661972 
0.0033581488008030853 
0.002518611600807014 
0.0008395372004049088 
-0.000839537200407213 
-0.0025186116008094456 
-0.0033581488008055894 
0.00326462074876726 
0.0024484655615556747 
0.0008161551871715066 
-0.0008161551871737254 
-0.0024484655615580973 
-0.00326462074876982 
0.003171092696401762 
0.0023783195222850636 
0.0007927731740836385 
-0.0007927731740858618 
-0.0023783195222875286 
-0.003171092696404421 
0.0030775646439802056 
0.0023081734829802645 
0.000769391160989446 
-0.0007693911609921215 
-0.0023081734829827148 
-0.0030775646439826177 
0.0029840365915551736 
0.002238027443664848 
0.0007460091478859846 
-0.0007460091478902175 
-0.0022380274436670155 
-0.00298403659155615 
0.002890508539132935 
0.0021678814043478273 
0.0007226271347786956 
-0.0007226271347868129 
-0.0021678814043489102 
-0.0028905085391295222 
0.002796980486714433 
0.0020977353650315604 
0.0006992451216689758 
-0.0006992451216848113 
-0.002097735365029691 
-0.002796980486700495 
0.0027034524343006686 
0.0020275893257169692 
0.0006758631085575845 
-0.0006758631085843855 
-0.002027589325708906 
-0.0027034524342671416 
0.0026099243818893413 
0.001957443286404251 
0.0006524810954496897 
-0.0006524810954805418 
-0.0019574432863864134 
-0.0026099243818315247 
0.0025163963294643973 
0.0018872972470903803 
0.0006290990823639072 
-0.0006290990823545975 
-0.0018872972470651273 
-0.0025163963294096087 
0.0024228682769717605 
0.0018171512077624656 
0.0006057170693496579 
-0.000605717069157199 
-0.0018171512077580722 
-0.0024228682770556014 
0.002329340224276546 
0.0017470051683838158 
0.0005823350565097216 
-0.0005823350557855612 
-0.0017470051685019535 
-0.0023293402249044267 
0.002235812171114874 
0.0016768591288733269 
0.0005589530440024631 
-0.0005589530420812459 
-0.001676859129377839 
-0.0022358121732200397 
0.00214228411712007 
0.001606713089093895 
0.0005355710319349747 
-0.000535571027937337 
-0.0016067130905230125 
-0.0021422841223691213 
0.0020487560621810907 
0.0015365670489120593 
0.0005121890199169068 
-0.0005121890137440872 
-0.0015365670520707316 
-0.002048756072462503 
0.0019552280077516217 
0.0014664210085008455 
0.0004888070058175041 
-0.0004888070016322001 
-0.0014664210138480537 
-0.001955228022046768 
0.0018616999602776038 
0.0013962749692510398 
0.00046542498305672856 
-0.0004654249981816969 
-0.0013962749744642127 
-0.00186169996467605 
0.0017681719382505322 
0.0013261289358820377 
0.00044204293611480424 
-0.00044204301891255277 
-0.001326128929199789 
-0.0017681718818584068 
0.0016746439829059775 
0.0012559829202371544 
0.0004186608364521865 
-0.00041866109236485055 
-0.0012559828662118923 
-0.0016746437323580422 
0.001581116164842441 
0.0011858369456622035 
0.00039527864932604155 
-0.00039527925328262665 
-0.0011858367621555132 
-0.0015811154455756557 
0.0014875885552490895 
0.001115691044995904 
0.0003718963824823513 
-0.0003718974939191357 
-0.001115690584189236 
-0.0014875869503182164 
0.001394061075379003 
0.0010455452297327785 
0.00034851424742327535 
-0.00034851560273611284 
-0.0010455443207812863 
-0.0013940583253303504 
0.0013005330379291806 
0.0009753993758930445 
0.0003251330580478665 
-0.0003251327655903139 
-0.0009753980956993865 
-0.001300530257979321 
0.0012070020759939518 
0.0009052529231502024 
0.000301755003902041 
-0.00030174679191315114 
-0.0009052524685122792 
-0.0012070051157006272 
0.001113462196524272 
0.0008351042521439758 
0.00027838470533026355 
-0.0002783530591137092 
-0.000835109057558849 
-0.0011134888939934315 
0.0010199014775422355 
0.0007649497354832348 
0.00025502946721440826 
-0.0002549442677989615 
-0.0007649714992717446 
-0.001019993521940984 
0.0009263028442292032 
0.0006947831433128247 
0.00023169484846213067 
-0.0002315149484833018 
-0.000694846110821363 
-0.0009265360701483075 
0.0008326591813174911 
0.0006245982322524209 
0.00020836550626705336 
-0.00020808098000610418 
-0.0006247395923178534 
-0.0008331234952767425 
0.0007390297774553477 
0.0005544019972923979 
0.0001849508085252591 
-0.00018473503219631265 
-0.0005546463574800679 
-0.0007396952506464402 
0.0006456920183817969 
0.00048425446984946136 
0.0001611632912313978 
-0.00016176779569009833 
-0.0004845073413975952 
-0.0006459694302693238 
0.000553450414471524 
0.000414346869492554 
0.00013630152124423687 
-0.00013986158220539305 
-0.00041410456907896363 
-0.0005511262557722515 
0.000464190169515869 
0.00034511352264624874 
0.00010896363784763081 
-0.00012019780366964326 
-0.00034280923638433725 
-0.00045333246551075486 
0.00038115600340026033 
0.0002770331067236286 
7.695783241328046e-05 
-0.00010381630238468031 
-0.0002691149056306264 
-0.00034959175171232824 
0.0003101002834110543 
0.00021059545535854167 
3.84866289116906e-05 
-8.829144264920903e-05 
-0.00019035158461750546 
-0.0002382376534192407 
0.00024477778101659114 
0.00014236895685250178 
2.739938139103959e-06 
-6.115829492051012e-05 
-0.00010729314871681738 
-0.00012674996400281903 
0.00024979529763169514 
0.00014158631755890205 
1.3819993454346248e-05 
-1.9804517830261224e-05 
-3.820726584381763e-05 
-4.254284660452929e-05 
0.000288554238620266 
0.00017629825105588 
3.9664892895004e-05 
2.652193214706307e-06 
-1.1124655998849069e-05 
-1.226617612859672e-05 
</DataArray>
<DataArray type="Float64" Name="Nodal_sigma_yy" NumberOfComponents="1" format="ascii" >
0.0020658601199080757 
0.0015233886411255648 
0.0004904585811712525 
-0.0004904585811723459 
-0.0015233886411267054 
-0.002065860119909268 
0.0009683168795768546 
0.0007845593675384354 
0.0003004009277498054 
-0.00030040092775059774 
-0.0007845593675391238 
-0.0009683168795774577 
-6.74623546633615e-05 
5.748748268881718e-06 
3.947992560047801e-05 
-3.947992560078031e-05 
-5.748748269028614e-06 
6.746235466333448e-05 
-1.7334714876657755e-05 
-3.099362523608537e-05 
-2.2326267797773753e-05 
2.2326267797720305e-05 
3.099362523605664e-05 
1.733471487663815e-05 
-2.413170516574206e-05 
-2.2232379725757856e-05 
-1.0166527142882612e-05 
1.0166527142892909e-05 
2.223237972575888e-05 
2.4131705165740372e-05 
-1.8752856452547973e-05 
-1.5320861268341926e-05 
-5.9444330420659606e-06 
5.9444330420711715e-06 
1.5320861268344663e-05 
1.875285645255094e-05 
-1.802316416023479e-05 
-1.3663109579516259e-05 
-4.651527499396987e-06 
4.6515274993983555e-06 
1.366310957951609e-05 
1.802316416023922e-05 
-1.782562834281353e-05 
-1.3374168339833858e-05 
-4.461354168417247e-06 
4.461354168433686e-06 
1.3374168339832597e-05 
1.7825628342817514e-05 
-1.7820072403993786e-05 
-1.3358196226756676e-05 
-4.448160024741629e-06 
4.448160024789476e-06 
1.3358196226767477e-05 
1.782007240399231e-05 
-1.782341348831422e-05 
-1.3365258930582201e-05 
-4.453552186404301e-06 
4.453552186479517e-06 
1.3365258930612335e-05 
1.7823413488307215e-05 
-1.7825361658284754e-05 
-1.3368518871383737e-05 
-4.455838042219066e-06 
4.455838042298125e-06 
1.3368518871427877e-05 
1.7825361658304093e-05 
-1.7825793745282595e-05 
-1.3369285828596563e-05 
-4.456388955925078e-06 
4.456388956003039e-06 
1.3369285828628005e-05 
1.782579374531031e-05 
-1.7825861741126224e-05 
-1.3369398580825978e-05 
-4.456467710233776e-06 
4.45646771031133e-06 
1.3369398580851958e-05 
1.7825861741139438e-05 
-1.782586339291696e-05 
-1.3369401175236294e-05 
-4.456469478741147e-06 
4.4564694788322065e-06 
1.336940117526617e-05 
1.782586339294126e-05 
-1.782586102475349e-05 
-1.336939688653335e-05 
-4.456466374128226e-06 
4.456466374203212e-06 
1.3369396886581217e-05 
1.7825861024812768e-05 
-1.7825860111276513e-05 
-1.3369395298445744e-05 
-4.456465242763666e-06 
4.456465242888342e-06 
1.3369395298502428e-05 
1.7825860111315815e-05 
-1.7825859913898022e-05 
-1.3369394956642119e-05 
-4.456464999582363e-06 
4.456464999891659e-06 
1.3369394956725135e-05 
1.782585991388844e-05 
-1.7825859888146743e-05 
-1.3369394913348408e-05 
-4.456464969015052e-06 
4.456464969861793e-06 
1.336939491377921e-05 
1.7825859888354802e-05 
-1.7825859888264013e-05 
-1.3369394913943791e-05 
-4.456464969112718e-06 
4.4564649715156556e-06 
1.3369394915424018e-05 
1.782585988921486e-05 
-1.7825859888868578e-05 
-1.33693949152415e-05 
-4.456464969266017e-06 
4.45646497471435e-06 
1.3369394918836626e-05 
1.782585989132694e-05 
-1.7825859887996663e-05 
-1.3369394914456714e-05 
-4.456464967857395e-06 
4.456464977266894e-06 
1.336939492119766e-05 
1.7825859893063505e-05 
-1.7825859886719608e-05 
-1.3369394913733226e-05 
-4.456464967777997e-06 
4.456464977585053e-06 
1.3369394922189899e-05 
1.782585989440054e-05 
-1.7825859888232612e-05 
-1.3369394918476661e-05 
-4.456464977481366e-06 
4.456464967876245e-06 
1.3369394917383773e-05 
1.7825859892773034e-05 
-1.782585990111637e-05 
-1.3369394942231971e-05 
-4.45646501798143e-06 
4.456464927438168e-06 
1.336939489372206e-05 
1.7825859879952496e-05 
-1.7825859945363385e-05 
-1.3369395013056817e-05 
-4.456465130472213e-06 
4.456464814926138e-06 
1.336939482293461e-05 
1.7825859835822767e-05 
-1.7825860057037754e-05 
-1.336939517589593e-05 
-4.456465374490167e-06 
4.4564645709675645e-06 
1.3369394660194192e-05 
1.7825859724227027e-05 
-1.7825860278223352e-05 
-1.3369395465964338e-05 
-4.45646577639305e-06 
4.456464169138622e-06 
1.33693943701569e-05 
1.7825859502955776e-05 
-1.78258605926995e-05 
-1.3369395792733559e-05 
-4.456466133322326e-06 
4.456463812048832e-06 
1.3369394043115298e-05 
1.7825859188255898e-05 
-1.7825860715200684e-05 
-1.3369395608206391e-05 
-4.456465490845e-06 
4.456464454458108e-06 
1.3369394227695404e-05 
1.782585906599669e-05 
-1.7825859577986846e-05 
-1.3369393167512212e-05 
-4.456461044252098e-06 
4.456468901042363e-06 
1.3369396668447982e-05 
1.782586020334462e-05 
-1.782585435016099e-05 
-1.336938426830693e-05 
-4.456446420018691e-06 
4.456483525334964e-06 
1.3369405567472659e-05 
1.7825865430690876e-05 
-1.7825839137777886e-05 
-1.3369360991167396e-05 
-4.456410428972861e-06 
4.456519516423309e-06 
1.3369428844600337e-05 
1.782588064296524e-05 
-1.7825804824577805e-05 
-1.3369313154749931e-05 
-4.456340947342122e-06 
4.456588998252162e-06 
1.336947668152013e-05 
1.782591495677375e-05 
-1.7825745170485863e-05 
-1.3369240725369915e-05 
-4.45624706149067e-06 
4.456682884768311e-06 
1.3369549112338272e-05 
1.782597461241255e-05 
-1.78256822660387e-05 
-1.3369196383708278e-05 
-4.4562283593424654e-06 
4.456701586199377e-06 
1.336959345399098e-05 
1.7826037518276133e-05 
-1.7825737685951278e-05 
-1.3369393040053415e-05 
-4.456639874911611e-06 
4.456290048662477e-06 
1.3369396762189526e-05 
1.782598207138643e-05 
-1.782628776440871e-05 
-1.3370417189844727e-05 
-4.458398732372968e-06 
4.454531040858067e-06 
1.3368372345344896e-05 
1.782543175950847e-05 
-1.7828221542303247e-05 
-1.3373532780490951e-05 
-4.463366848490434e-06 
4.449562299177924e-06 
1.336525556433897e-05 
1.7823496852019876e-05 
-1.783317734694494e-05 
-1.3380802136778463e-05 
-4.474305967806553e-06 
4.4386218353806285e-06 
1.3357983221844197e-05 
1.781853776392602e-05 
-1.784316290686907e-05 
-1.3394000625940174e-05 
-4.492712557449286e-06 
4.420218817645527e-06 
1.3344788439502383e-05 
1.7808552473826422e-05 
-1.7857807006780834e-05 
-1.3409622686627568e-05 
-4.510314434210862e-06 
4.40267254994149e-06 
1.3329258301336787e-05 
1.779398100084317e-05 
-1.7865262313850795e-05 
-1.3404355638531832e-05 
-4.485973237124553e-06 
4.427343986620167e-06 
1.3335121201687511e-05 
1.778705691909845e-05 
-1.7819682033834022e-05 
-1.3302318955157024e-05 
-4.296460321910422e-06 
4.6181000771480834e-06 
1.3439564163341224e-05 
1.7834963405045463e-05 
-1.7596445129914657e-05 
-1.2916446963736086e-05 
-3.6567283276660373e-06 
5.2597448389333e-06 
1.3830230379529533e-05 
1.806396322341791e-05 
-1.6921396182226426e-05 
-1.1876748377183542e-05 
-2.049751299233078e-06 
6.854601757515874e-06 
1.4853483240290482e-05 
1.873036093922372e-05 
-1.529228069225207e-05 
-9.605776471603134e-06 
1.1585379037545047e-06 
9.926964775866821e-06 
1.6897270424434806e-05 
2.017695935559917e-05 
-1.1953731497851562e-05 
-5.613347537545232e-06 
5.881439738809644e-06 
1.3944172325988734e-05 
1.958475620544588e-05 
2.2317010813772478e-05 
-6.464761435605406e-06 
-7.195557951987759e-07 
8.440013051744807e-06 
1.3972314652079543e-05 
1.9652511264524685e-05 
2.3214769483172044e-05 
-1.8305806713368106e-06 
-4.832354212264276e-06 
-8.73188902540161e-06 
-4.901566362777085e-06 
8.833998484065228e-06 
1.7841479396073146e-05 
-5.777316094957804e-05 
-8.156958514025613e-05 
-9.664553613724875e-05 
-6.444678196436847e-05 
-1.9431076028541082e-05 
2.1063489280914957e-06 
-0.00011506708453064082 
-0.00015176487759941716 
-0.00016746919285634898 
-0.00010714762236911653 
-3.81774326233659e-05 
-8.53533555300318e-06 
</DataArray>
<DataArray type="Float64" Name="Nodal_sigma_xy" NumberOfComponents="1" format="ascii" >
-0.0006400581807682321 
-0.00038985597408867874 
-6.33766312968465e-05 
-6.337663129696549e-05 
-0.0003898559740890596 
-0.0006400581807687559 
-0.0004191304379211267 
-0.0003431934011767332 
-0.00022400519166343476 
-0.00022400519166352256 
-0.0003431934011769557 
-0.00041913043792139623 
-0.00021307439107435072 
-0.0002908303340229325 
-0.0003808845168933733 
-0.00038088451689339674 
-0.00029083033402294706 
-0.00021307439107433294 
-0.0002399171160202453 
-0.0002890595288338295 
-0.00036445695020013655 
-0.0003644569502001208 
-0.0002890595288337882 
-0.00023991711602019386 
-0.0002538955133415342 
-0.00029237381852492336 
-0.00034628886031271976 
-0.00034628886031270003 
-0.00029237381852488433 
-0.0002538955133414957 
-0.00025441517130268224 
-0.00028988741770635113 
-0.0003378847248197625 
-0.00033788472481975033 
-0.00028988741770632966 
-0.0002544151713026636 
-0.0002507479448590183 
-0.0002858111018180974 
-0.00033265243582131996 
-0.0003326524358213151 
-0.0002858111018180875 
-0.00025074794485900826 
-0.00024631026583114043 
-0.0002813592908161432 
-0.0003280949733714809 
-0.0003280949733714802 
-0.0002813592908161407 
-0.0002463102658311366 
-0.0002417999027014982 
-0.00027686543491330464 
-0.0003236159856263609 
-0.0003236159856263589 
-0.0002768654349132998 
-0.00024179990270149272 
-0.00023730108153790456 