<?xml version="1.0"?>
<VTKFile type="UnstructuredGrid" version="0.1" byte_order="LittleEndian" compressor="vtkZLibDataCompressor">
<UnstructuredGrid>
<Piece NumberOfPoints="306" NumberOfCells="250">
<PointData>
<DataArray type="Float64" Name="displacement" NumberOfComponents="3" format="ascii" >
0.0 0.0  0.
0.0 0.0  0.
0.0 0.0  0.
0.0 0.0  0.
0.0 0.0  0.
0.0 0.0  0.
0.019471398904561052 -0.013001613953849023  0.
0.010125693058135586 -0.004590914298054843  0.
0.0033331899510714003 -0.001303978177322953  0.
-0.003333189951076263 -0.0013039781773237884  0.
-0.010125693058140577 -0.004590914298057573  0.
-0.01947139890456754 -0.013001613953854657  0.
0.03916220572784171 -0.025679771623833073  0.
0.022673848030782186 -0.017872253173310294  0.
0.007329982645676678 -0.013660362783303459  0.
-0.007329982645687382 -0.013660362783304836  0.
-0.02267384803079335 -0.01787225317331457  0.
-0.03916220572785385 -0.025679771623840164  0.
0.0587069222611173 -0.046169673092176094  0.
0.03472577645772633 -0.0384125342739151  0.
0.01146756174720413 -0.03446969494303703  0.
-0.01146756174722115 -0.03446969494303861  0.
-0.03472577645774368 -0.03841253427391976  0.
-0.0587069222611351 -0.04616967309218372  0.
0.07804535641499963 -0.07436889542937136  0.
0.046402508316887955 -0.0668091517514642  0.
0.015389376762981275 -0.06300960563498245  0.
-0.015389376763004642 -0.06300960563498403  0.
-0.046402508316911506 -0.06680915175146887  0.
-0.0780453564150233 -0.07436889542937905  0.
0.09700457162517134 -0.11026808438508656  0.
0.0577879866707561 -0.10287608477919552  0.
0.019192518332137504 -0.0991780421495157  0.
-0.01919251833216714 -0.09917804214951725  0.
-0.057787986670785815 -0.10287608477920013  0.
-0.0970045716252011 -0.11026808438509417  0.
0.11555286315626517 -0.15367706040780707  0.
0.06891685759021518 -0.14645076134846796  0.
0.02290307666220189 -0.14283759495964105  0.
-0.022903076662237724 -0.1428375949596426  0.
-0.06891685759025107 -0.1464507613484725  0.
-0.11555286315630107 -0.15367706040781465  0.
0.13368417673934951 -0.20442410263445215  0.
0.07979514817179204 -0.19736211376614354  0.
0.02652918809103551 -0.1938312413764932  0.
-0.026529188091077512 -0.19383124137649468  0.
-0.07979514817183404 -0.19736211376614807  0.
-0.13368417673939154 -0.2044241026344597  0.
0.15139841154036188 -0.26234042754594444  0.
0.09042352389272662 -0.2554426652285018  0.
0.030071933411443503 -0.2519938215982903  0.
-0.030071933411491635 -0.2519938215982918  0.
-0.09042352389277475 -0.2554426652285063  0.
-0.15139841154041006 -0.26234042754595194  0.
0.16869574961021072 -0.3272590497385024  0.
0.10080189385642566 -0.3205255093889424  0.
0.03353137490941997 -0.3171587469169057  0.
-0.0335313749094742 -0.3171587469169072  0.
-0.10080189385647992 -0.3205255093889469  0.
-0.16869574961026507 -0.32725904973850994  0.
0.18557626692903167 -0.3990132257202616  0.
0.11093020076010976 -0.3924439154682512  0.
0.036907474074713884 -0.3891592611163899  0.
-0.03690747407477426 -0.38915926111639143  0.
-0.11093020076017014 -0.39244391546825586  0.
-0.1855762669290922 -0.3990132257202693  0.
0.20203997952207656 -0.47743624308849963  0.
0.12080842866498981 -0.47103116510154686  0.
0.04020021637738373 -0.4678286260245843  0.
-0.040200216377450276 -0.46782862602458586  0.
-0.12080842866505637 -0.4710311651015516  0.
-0.20203997952214314 -0.4774362430885074  0.
0.21808688947694616 -0.5623613841449246  0.
0.13043657491882776 -0.5561205388945019  0.
0.043409598492179645 -0.5530001162029856  0.
-0.043409598492252316 -0.5530001162029871  0.
-0.13043657491890048 -0.5561205388945063  0.
-0.21808688947701882 -0.5623613841449322  0.
0.23371699672995305 -0.6536219285874577  0.
0.13981463934982763 -0.6475453161167388  0.
0.046535619995449626 -0.644507009862993  0.
-0.0465356199955283 -0.6445070098629944  0.
-0.13981463934990646 -0.6475453161167432  0.
-0.23371699673003205 -0.653621928587465  0.
0.2489303011657556 -0.7510511553859107  0.
0.14894262202511221 -0.7451387756898279  0.
0.04957828089466633 -0.7421825858385953  0.
-0.049578280894750776 -0.7421825858385966  0.
-0.1489426220251972 -0.7451387756898322  0.
-0.24893030116584108 -0.751051155385918  0.
0.263726802747623 -0.854482343396839  0.
0.15782052297522936 -0.8487341964713424  0.
0.052537581212689255 -0.8458601230083724  0.
-0.052537581212779086 -0.8458601230083735  0.
-0.1578205229753205 -0.8487341964713463  0.
-0.2637268027477155 -0.8544823433968463  0.
0.27810650146852467 -0.9637487714704875  0.
0.16644834220746504 -0.9581648573144816  0.
0.055413520956865386 -0.9553729002365519  0.
-0.05541352095696041 -0.9553729002365535  0.
-0.16644834220756213 -0.9581648573144864  0.
-0.2781065014686254 -0.9637487714704961  0.
0.2920693973277749 -1.0786837184604887  0.
0.17482607972286496 -1.0732640370737838  0.
0.0582061001286355 -1.0705541963804683  0.
-0.058206100128737004 -1.070554196380472  0.
-0.17482607972296793 -1.0732640370737934  0.
-0.2920693973278847 -1.0786837184605025  0.
0.3056154903254714 -1.1991204632218841  0.
0.18295373552144545 -1.1938650146044678  0.
0.06091531872814308 -1.1912372902957737  0.
-0.06091531872825693 -1.1912372902957837  0.
-0.18295373552155408 -1.1938650146044911  0.
-0.3056154903255883 -1.1991204632219121  0.
0.3187447804616838 -1.3248922846100424  0.
0.19083130960316336 -1.3198010687619177  0.
0.06354117675536533 -1.3172554608378713  0.
-0.06354117675550812 -1.3172554608378944  0.
-0.19083130960327738 -1.3198010687619712  0.
-0.3187447804617958 -1.3248922846100983  0.
0.3314572677364436 -1.4558324614803784  0.
0.19845880196800336 -1.4509054784015436  0.
0.06608367421027941 -1.4484419868621574  0.
-0.06608367421048805 -1.4484419868622034  0.
-0.19845880196812232 -1.4509054784016482  0.
-0.33145726773651063 -1.455832461480475  0.
0.34375295214978197 -1.5917742726883264  0.
0.20583621261596188 -1.587011522378772  0.
0.06854281109286917 -1.584630147224046  0.
-0.06854281109320559 -1.5846301472241135  0.
-0.20583621261608598 -1.5870115223789232  0.
-0.34375295214970825 -1.5917742726884403  0.
0.3556318337017423 -1.7325509970893649  0.
0.21296354154703778 -1.727952479549073  0.
0.0709185874031356 -1.725653220778974  0.
-0.07091858740365901 -1.7256532207790103  0.
-0.21296354154716907 -1.727952479549152  0.
-0.35563183370134543 -1.7325509970893402  0.
0.367093912392353 -1.877995913539083  0.
0.21984078876122815 -1.8735616287680297  0.
0.07321100314114937 -1.8713444863824291  0.
-0.07321100314177732 -1.8713444863822297  0.
-0.21984078876137467 -1.8735616287675745  0.
-0.3670939123913944 -1.8779959135384114  0.
0.37813918822150316 -2.0279423008932627  0.
0.22646795425852626 -2.0236722488914474  0.
0.07542005830718876 -2.02153722289  0.
-0.07542005830728207 -2.0215372228890103  0.
-0.22646795425870966 -2.0236722488892123  0.
-0.378139188219966 -2.0279423008906967  0.
0.38876766118860073 -2.182223438007887  0.
0.2328450380389209 -2.1781176187754294  0.
0.07754575290200934 -2.176064709157407  0.
-0.07754575289941862 -2.1760647091544545  0.
-0.23284503803918558 -2.178117618768787  0.
-0.3887676611876521 -2.1822234380010386  0.
0.39897933129183455 -2.340672603738759  0.
0.23897204010240108 -2.3367310172761426  0.
0.07958808692721235 -2.334760224040404  0.
-0.0795880869165852 -2.3347602240336323  0.
-0.23897204010281398 -2.336731017260954  0.
-0.3989793312962646 -2.3406726037244576  0.
0.4087741985269693 -2.5031230769399127  0.
0.2448489604489803 -2.499345723248471  0.
0.08154706038534326 -2.4974570463941825  0.
-0.08154706035623649 -2.4974570463821806  0.
-0.24484896044958115 -2.4993457232216576  0.
-0.40877419855003916 -2.5031230769177446  0.
0.4181522628863147 -2.6694081364591806  0.
0.25047579907877193 -2.6657950155417764  0.
0.08342267327836947 -2.6639884550714865  0.
-0.0834226732164052 -2.6639884550581776  0.
-0.2504757990793737 -2.665795015512357  0.
-0.4181522629566669 -2.6694081364438915  0.
0.4271135243608044 -2.8393610611285665  0.
0.25585255599216283 -2.8359121729898424  0.
0.08521492560104073 -2.834187728918132  0.
-0.08521492550234144 -2.8341877289266346  0.
-0.25585255599180534 -2.835912173010099  0.
-0.42711352452521456 -2.839361061181725  0.
0.4356579829537144 -3.0128151297483754  0.
0.2609792311901225 -3.009530474392219  0.
0.08692381732201664 -3.0078881467646674  0.
-0.08692381724538609 -3.0078881468678276  0.
-0.2609792311859069 -3.009530474626157  0.
-0.4356579832524057 -3.0128151300417603  0.
0.4437856387251813 -3.189603621073158  0.
0.2658558246745587 -3.186483198491195  0.
0.08854934834217822 -3.1849229874159843  0.
-0.08854934854465833 -3.184922987787693  0.
-0.265855824659771 -3.1864831993290688  0.
-0.44378563907810487 -3.189603621980276  0.
0.4514964919005876 -3.3695598138371134  0.
0.27048233644814 -3.3666036239754753  0.
0.09009151842433373 -3.3651255296526172  0.
-0.09009151963735193 -3.365125530616513  0.
-0.2704823364107311 -3.3666036261409515  0.
-0.4514964917769295 -3.369559815973898  0.
0.4587905430768727 -3.5525169869293434  0.
0.27485876651174784 -3.5497250296143026  0.
0.09155032712574995 -3.548329052289778  0.
-0.0915503309662096 -3.548329054249897  0.
-0.274858766437916 -3.549725034003398  0.
-0.4587905407519301 -3.552516990844358  0.
0.4656677934928677 -3.738308419968485  0.
0.27898511485511956 -3.735680694778802  0.
0.09292577389015708 -3.7343668344084877  0.
-0.09292578308752358 -3.734366837317632  0.
-0.2789851147516237 -3.735680701256098  0.
-0.46566778476423065 -3.738308424683835  0.
0.47212824505066764 -3.9267673947111588  0.
0.2828613814323176 -3.92430390084872  0.
0.0942178587677481 -3.923072155981479  0.
-0.09421787595106759 -3.92307215755789  0.
-0.2828613813978401 -3.924303904230032  0.
-0.4721282219116191 -3.9267673934463447  0.
0.47817189900256263 -4.117727197753083  0.
0.2864875661111238 -4.11542793418224  0.
0.0954265848402184 -4.114278299199276  0.
-0.09542660647442068 -4.114278290492005  0.
-0.28648756650836815 -4.115427914277276  0.
-0.47817185094194575 -4.117727168245867  0.
0.483798750549372 -4.311021124122309  0.
0.2898636685955269 -4.308886090802309  0.
0.09655196426555829 -4.3078185505737245  0.
-0.09655196249503252 -4.307818507324666  0.
-0.28986367037516775 -4.308885993083795  0.
-0.4837986766578951 -4.311021011761012  0.
0.48900877387426467 -4.506482477783082  0.
0.2929896883735603 -4.504511679906394  0.
0.09759403008402984 -4.503526202552916  0.
-0.09759391095487535 -4.503526073338309  0.
-0.29298969348964166 -4.504511389160987  0.
-0.48900872489891756 -4.506482177732462  0.
0.4938018897848972 -4.7039445550641  0.
0.2958656249155065 -4.702138013775305  0.
0.09855285251193993 -4.70123454910631  0.
-0.09855238160668045 -4.701234252294778  0.
-0.2958656363181861 -4.702137347966863  0.
-0.4938020749463147 -4.703943927586495  0.
0.49817791279266344 -4.903240575449136  0.
0.2984914787930313 -4.901598348894527  0.
0.09942854356453676 -4.900776859570005  0.
-0.09942726258500278 -4.900776332299743  0.
-0.2984914982713964 -4.901597170963111  0.
-0.4981789124569014 -4.903239600013933  0.
0.5021365047235005 -5.104203488071784  0.
0.3008672555750298 -5.102725701404262  0.
0.10022119165161278 -5.101986295250832  0.
-0.10021846727182271 -5.1019857073292885  0.
-0.3008672749909058 -5.102724400911658  0.
-0.5021395748866726 -5.104202805913655  0.
0.5056772615100559 -5.306665552606434  0.
0.3029929766682419 -5.305352405623303  0.
0.10093057483991108 -5.304695710618471  0.
-0.10092622716122726 -5.304696068911065  0.
-0.3029929544075351 -5.30535326431313  0.
-0.5056844577190558 -5.30666785107838  0.
0.5088002918408876 -5.510457629312649  0.
0.3048687055581627 -5.509309298524821  0.
0.10155534260301372 -5.508737274174258  0.
-0.10155192585667824 -5.508741771541935  0.
-0.30486851420457917 -5.5093194825456635  0.
-0.5088134032803983 -5.510470434081091  0.
0.5115081463233038 -5.715408532610532  0.
0.3064945743822459 -5.714424634166388  0.
0.1020911734695401 -5.7139420765768705  0.
-0.10209990644633109 -5.713958291052893  0.
-0.30649392895489025 -5.714461271701227  0.
-0.5115237010269569 -5.71544817983332  0.
0.5138105138064175 -5.921345479786805  0.
0.30787062853912744 -5.920524220662566  0.
0.10252744869090141 -5.920140361573329  0.
-0.10258032847478564 -5.920182677575625  0.
-0.3078690019970646 -5.920618908769323  0.
-0.5138054539154496 -5.921439257562188  0.
0.5157351906637972 -6.12810174884236  0.
0.3089951937666903 -6.127435572301069  0.
0.1028425666723807 -6.127167128507736  0.
-0.1030102512535392 -6.127252200568925  0.
-0.30899237166239313 -6.1276285733445945  0.
-0.5156334329759495 -6.128272967585282  0.
0.5173445763556284 -6.335531218003389  0.
0.3098567757703972 -6.335016448100914  0.
0.10300312805144166 -6.334874014016663  0.
-0.10340449182019884 -6.335003958277682  0.
-0.3098543305480874 -6.335297407409234  0.
-0.5169636795954531 -6.33574367185072  0.
0.5187910230221187 -6.543636648542548  0.
0.3104081842514269 -6.543191728225972  0.
0.10297892084608176 -6.543196754223477  0.
-0.1037179077713335 -6.543235107380884  0.
-0.31043072563670326 -6.543350553266218  0.
-0.5177563437159359 -6.543569233416553  0.
0.5202136634817288 -6.7525062862413145  0.
0.3104936807507648 -6.752408089767419  0.
0.102988395953711 -6.751994803901752  0.
-0.10381671653863139 -6.751575861189673  0.
-0.31069473178334145 -6.751382768452411  0.
-0.5180565398022536 -6.751382405310434  0.
0.5219910837111175 -6.966498024566575  0.
0.3111665547644158 -6.962515225810888  0.
0.10342631356005957 -6.960336314272012  0.
-0.10363374945541182 -6.9592961782667775  0.
-0.3107113870497874 -6.958953231819978  0.
-0.5180975473507755 -6.958910647614251  0.
</DataArray>
<DataArray type="Float64" Name="Nodal_sigma_xx" NumberOfComponents="1" format="ascii" >
0.009428638173703378 
0.006907143803881531 
0.0021928247170290177 
-0.0021928247170323184 
-0.006907143803885043 
-0.009428638173707099 
0.00920572013400634 
0.0068893573144658705 
0.002286497247461849 
-0.0022864972474652733 
-0.0068893573144693555 
-0.009205720134009868 
0.008923459656356492 
0.006779068868522526 
0.0023173390403433886 
-0.0023173390403469496 
-0.006779068868525971 
-0.008923459656359826 
0.008779026213415673 
0.006608103946596739 
0.0022185908398880084 
-0.002218590839891563 
-0.0066081039466001825 
-0.008779026213419028 
0.00860306816929933 
0.006457412328619874 
0.0021558782439693286 
-0.002155878243972841 
-0.006457412328623327 
-0.008603068169302735 
0.008418987640036985 
0.006314741730686687 
0.0021052479106673247 
-0.0021052479106708046 
-0.006314741730690153 
-0.008418987640040435 
0.008232242386262644 
0.006174134125897661 
0.0020580129327654735 
-0.0020580129327689364 
-0.00617413412590112 
-0.008232242386266096 
0.008045148975178508 
0.006033819700053686 
0.002011245212463567 
-0.002011245212467017 
-0.0060338197000571305 
-0.008045148975181955 
0.007858034514808918 
0.005893514227319017 
0.001964496969913701 
-0.001964496969917136 
-0.005893514227322461 
-0.007858034514812366 
0.007670932671640419 
0.0057531974531230615 
0.0019177311173019943 
-0.0019177311173054297 
-0.005753197453126505 
-0.007670932671643864 
0.0074838355664838575 
0.005612876529631178 
0.001870958746388388 
-0.0018709587463918223 
-0.005612876529634603 
-0.007483835566487281 
0.007296739552811813 
0.0054725547099161425 
0.001824184933509376 
-0.00182418493351281 
-0.005472554709919558 
-0.0072967395528152155 
0.007109643678628914 
0.005332232781294089 
0.001777410941978776 
-0.0017774109419821944 
-0.00533223278129752 
-0.007109643678632362 
0.006922547802325185 
0.005191910857196606 
0.0017306369560331821 
-0.0017306369560365314 
-0.00519191085720006 
-0.006922547802328721 
0.006735451918590292 
0.005051588939757323 
0.0016838629804613804 
-0.00168386298046462 
-0.005051588939760794 
-0.0067354519185939404 
0.006548356032456494 
0.004911267024364307 
0.0016370890081353168 
-0.0016370890081383693 
-0.004911267024367802 
-0.00654835603246035 
0.0063612601458501 
0.004770945109356938 
0.0015903150364311766 
-0.0015903150364340803 
-0.004770945109360426 
-0.006361260145854112 
0.006174164259195793 
0.004630623194385166 
0.0015435410647863911 
-0.001543541064789657 
-0.004630623194388467 
-0.006174164259199377 
0.005987068372548204 
0.004490301279407858 
0.0014967670931320637 
-0.001496767093137421 
-0.0044903012794103225 
-0.005987068372549188 
0.005799972485907805 
0.004349979364427797 
0.001449993121469781 
-0.0014499931214816937 
-0.004349979364427733 
-0.0057999724859003066 
0.005612876599274585 
0.00420965744944833 
0.0014032191498014408 
-0.0014032191498289533 
-0.004209657449442698 
-0.005612876599246682 
0.00542578071265077 
0.004069335534470772 
0.001356445178126163 
-0.0013564451781826322 
-0.004069335534455476 
-0.005425780712584136 
0.005238684826033246 
0.003929013619493717 
0.0013096712064473986 
-0.0013096712065398014 
-0.003929013619467878 
-0.005238684825915545 
0.005051588939392598 
0.0037886917045075377 
0.0012628972347893909 
-0.0012628972348762678 
-0.003788691704489482 
-0.0050515889392701244 
0.004864493052627012 
0.003648369789482399 
0.0012161232632329141 
-0.0012161232631113005 
-0.0036483697895501287 
-0.004864493052749613 
0.004677397165478134 
0.0035080478743475647 
0.0011693492919779152 
-0.001169349291044862 
-0.003508047874720597 
-0.004677397166612636 
0.004490301277430621 
0.003367725958972314 
0.0011225753214126485 
-0.0011225753182886697 
-0.0033677259601315214 
-0.004490301281374414 
0.004303205387746511 
0.003227404043196557 
0.0010758013520665631 
-0.0010758013443133846 
-0.0032274040459432454 
-0.0043032053977732 
0.004116109496119092 
0.0030870821270509467 
0.001029027384062224 
-0.001029027368996435 
-0.003087082132125059 
-0.004116109516115601 
0.0039290136051331834 
0.0029467602114885104 
0.0009822534151537998 
-0.0009822533945835813 
-0.002946760217723606 
-0.003929013633816288 
0.0037419177267933685 
0.0028064383001916993 
0.0009354794356568475 
-0.0009354794307592777 
-0.0028064382990566896 
-0.0037419177388711587 
0.0035548218960937865 
0.002666116403065403 
0.0008887054181696671 
-0.0008887055049254257 
-0.0026661163662196835 
-0.0035548217962862007 
0.0033677261919110683 
0.0025257945409620257 
0.0008419313024019544 
-0.000841931677373099 
-0.0025257943983604983 
-0.003367725727183873 
0.0031806307509511973 
0.002385472746639494 
0.0007951569872447664 
-0.0007951580492143746 
-0.0023854723627231454 
-0.0031806293948558 
0.0029935357157964484 
0.002245151044158542 
0.0007483823773503204 
-0.0007483847158033506 
-0.0022451502352510977 
-0.0029935326567154894 
0.0028064409533490415 
0.0021048293608937497 
0.0007016076118798158 
-0.0007016115379565933 
-0.002104828088556858 
-0.0028064356458793556 
0.0026193451892197912 
0.001964507279553478 
0.0006548337451359921 
-0.000654837461074216 
-0.001964506339748375 
-0.002619339636963497 
0.0024322439769427114 
0.0018241834943445814 
0.0006080643050841226 
-0.0006080589555035444 
-0.0018241862935577406 
-0.002432249077686599 
0.0022451259958734928 
0.0016838549027859322 
0.0005613080507243524 
-0.0005612672562917828 
-0.0016838710486632312 
-0.002245175292992564 
0.0020579686376161026 
0.0015435157661361032 
0.0005145820201023504 
-0.0005144453184228758 
-0.0015435663389124815 
-0.0020581408954306146 
0.0018707393849841493 
0.0014031590334745178 
0.0004679095681562328 
-0.00046756986219136305 
-0.0014032792606502626 
-0.0018711783425702196 
0.001683424023945652 
0.001262786155181179 
0.00042129679048573415 
-0.0004206355005729452 
-0.0012630088024603772 
-0.0016843013092201016 
0.0014961336488878703 
0.0011224395932175725 
0.0003746478787804825 
-0.0003737415096082597 
-0.0011227147032260819 
-0.001497396167221954 
0.0013093874342912006 
0.0009822841255278892 
0.0003275452454485313 
-0.0003273161034267502 
-0.0009822389625955166 
-0.0013099360442050479 
0.0011247234271435365 
0.0008427506360501327 
0.00027878997442146413 
-0.00028255710015304185 
-0.0008411516879944584 
-0.0011203870717966338 
0.0009456487529072762 
0.0007047006173652251 
0.00022563668207004642 
-0.00024200200039045815 
-0.000698461058524796 
-0.0009253972339517566 
0.0007789624217311119 
0.0005689612757789687 
0.0001628266451619428 
-0.00020920635973067426 
-0.0005523078560283194 
-0.0007195098320982305 
0.0006323809172156661 
0.0004346566451574526 
8.304504599608803e-05 
-0.00018494713081696216 
-0.00039923550460449226 
-0.0004994190286821233 
0.0005122424807030995 
0.0002888481043286029 
-1.6493264255735068e-05 
-0.00015010849269178397 
-0.00023962797609616734 
-0.00027747922327434326 
0.0003113091383000474 
0.00013045975243104518 
-5.987959940950337e-05 
-8.087196023584775e-05 
-9.577496974080313e-05 
-9.917558439096041e-05 
0.00016307425755991201 
5.0799966545445296e-05 
-4.8843982972845115e-05 
-3.620279970297261e-05 
-3.26931458074263e-05 
-2.9194333685576192e-05 
</DataArray>
<DataArray type="Float64" Name="Nodal_sigma_yy" NumberOfComponents="1" format="ascii" >
0.002284316440904351 
0.0017611277560967851 
0.0006189695356443208 
-0.0006189695356454463 
-0.0017611277560978422 
-0.0022843164409053697 
0.0010793130361928971 
0.0009093495687579526 
0.0003696930506612982 
-0.00036969305066208806 
-0.0009093495687585949 
-0.0010793130361934251 
-6.323979206904499e-05 
1.184642685923571e-05 
4.346632289368207e-05 
-4.34663228939548e-05 
-1.1846426859369935e-05 
6.323979206901745e-05 
-7.94284092790168e-06 
-2.6225015333274093e-05 
-2.225359486933574e-05 
2.2253594869295152e-05 
2.6225015333256854e-05 
7.942840927898428e-06 
-8.63158230313089e-06 
-1.1367105051868383e-05 
-7.0513139002951924e-06 
7.05131390031296e-06 
1.1367105051873262e-05 
8.631582303136095e-06 
-1.3035219574813843e-06 
-2.3985372098010032e-06 
-1.7467762310510615e-06 
1.7467762310675007e-06 
2.3985372097936307e-06 
1.3035219574707591e-06 
-2.1562201667278506e-07 
-3.2227753325522203e-07 
-2.1446652491475697e-07 
2.1446652491547525e-07 
3.2227753324410896e-07 
2.156220166654125e-07 
1.2339839493757596e-08 
7.122511428819247e-09 
9.525916775968645e-10 
-9.525916872869214e-10 
-7.12251143253264e-09 
-1.2339839499178606e-08 
1.0792229151578708e-08 
1.6716352063911397e-08 
1.1320237488047504e-08 
-1.1320237491259453e-08 
-1.6716352066865848e-08 
-1.0792229151361868e-08 
3.580980093616931e-09 
5.442717720336972e-09 
3.6522276778178813e-09 
-3.652227674389092e-09 
-5.442717715403852e-09 
-3.5809800734507707e-09 
6.453406684904517e-10 
1.0554670176862648e-09 
7.327966900140146e-10 
-7.327966526632498e-10 
-1.055466976351057e-09 
-6.45340634229663e-10 
6.193105685399491e-11 
1.0669914577527903e-10 
7.573362196969333e-11 
-7.573358448340322e-11 
-1.0669909324568377e-10 
-6.193100828173759e-11 
-1.0396607728370422e-11 
-1.3248962284261381e-11 
-8.050667053035969e-12 
8.050657539161905e-12 
1.3248981691480269e-11 
1.039663103871713e-11 
-6.2309424113393685e-12 
-9.44102004148302e-12 
-6.325561568412599e-12 
6.325539491345861e-12 
9.441005486068854e-12 
6.230906524247459e-12 
-1.6590279497408211e-12 
-2.5958311021534453e-12 
-1.7663476543504537e-12 
1.7662897444019159e-12 
2.5958041055193504e-12 
1.658967668100031e-12 
-2.6944191235805937e-13 
-4.4105471770465587e-13 
-3.0633768498223787e-13 
3.063801179447635e-13 
4.4108976453988147e-13 
2.694114462770125e-13 
-1.4628814652695166e-14 
-2.8757703683657265e-14 
-2.1225100670096975e-14 
2.199876023532832e-14 
2.917379337240289e-14 
1.4786457648574558e-14 
7.92009687000661e-15 
1.1486850966940798e-14 
8.425585804137242e-15 
-5.369829743622628e-15 
-9.919663831667314e-15 
-7.302101631689872e-15 
4.086683248749612e-15 
7.114615971012817e-15 
7.516143469329245e-15 
8.168853505956253e-16 
-2.8000605306610638e-15 
-2.344153517130909e-15 
2.704217058613345e-15 
5.903562144346508e-15 
9.697022915547415e-15 
8.07643882327902e-15 
3.5496237026089172e-15 
1.2375083596749548e-15 
3.4254283437507027e-15 
7.904782514320252e-15 
1.428271699044706e-14 
1.4013103015204226e-14 
7.530597239541192e-15 
3.216285744678249e-15 
3.343137398859053e-15 
6.672722270562037e-15 
1.0794825049034035e-14 
1.078436249806955e-14 
6.654941354933275e-15 
3.3285006695304986e-15 
-3.2802536728548937e-15 
-1.2836845302011124e-14 
-2.9973307771316224e-14 
-2.989768466978536e-14 
-1.2818197024644373e-14 
-3.39420332118312e-15 
-3.0606702068614045e-14 
-8.606895578189278e-14 
-1.763709011194485e-13 
-1.7633734506221008e-13 
-8.606754631906854e-14 
-3.0670995257442435e-14 
-1.0623142990273671e-13 
-2.803738957581764e-13 
-5.556195762268686e-13 
-5.556755752690774e-13 
-2.804223595952865e-13 
-1.0621635949253916e-13 
-2.693352268642868e-13 
-6.844923391112478e-13 
-1.3264073304606553e-12 
-1.326369437594727e-12 
-6.844040850544075e-13 
-2.692345044824629e-13 
-5.355723460206963e-13 
-1.3068990876476116e-12 
-2.4687304473912028e-12 
-2.468556975043605e-12 
-1.3065692733467416e-12 
-5.352596621141514e-13 
-7.642949858069348e-13 
-1.7230071942776412e-12 
-3.0816867815724146e-12 
-3.0815612038557864e-12 
-1.7229071495221751e-12 
-7.643460517292588e-13 
-3.0869458465115907e-13 
-1.7887656687896186e-13 
3.6070752030344273e-13 
3.6071353762550003e-13 
-1.7907513850685258e-13 
-3.091037625510551e-13 
2.7122246505986713e-12 
8.198130027484499e-12 
1.7406126744752472e-11 
1.7406147927352417e-11 
8.198051192434032e-12 
2.7120246152978478e-12 
1.252901428439035e-11 
3.396376660003229e-11 
6.82768180338409e-11 
6.827699955638963e-11 
3.3963852766999945e-11 
1.252882357322821e-11 
3.6449842818510325e-11 
9.442925818180497e-11 
1.8503787991926601e-10 
1.8503845411273656e-10 
9.442987612283318e-11 
3.6449930313625645e-11 
8.202753011337868e-11 
2.0471330683944407e-10 
3.922227076883834e-10 
3.922250388179219e-10 
2.047166150248754e-10 
8.202948422516426e-11 
1.418664050166843e-10 
3.361279315322076e-10 
6.227053976592381e-10 
6.22712125201481e-10 
3.361381241574887e-10 
1.418733351827607e-10 
1.4707368027437606e-10 
2.9480837377153426e-10 
4.789818087853046e-10 
4.78982120615402e-10 
2.9481075328359474e-10 
1.4707781563830236e-10 
-1.4167934495957005e-10 
-5.519318160330817e-10 
-1.2933031626907276e-09 
-1.293445631707997e-09 
-5.521341833985682e-10 
-1.4179914165600438e-10 
-1.3320242940335209e-09 
-3.749995953193121e-09 
-7.691133206829212e-09 
-7.692179943528265e-09 
-3.751523721962904e-09 
-1.3329863581749805e-09 
-4.634116353076801e-09 
-1.2253847571935968e-08 
-2.4298450294222838e-08 
-2.430303257415865e-08 
-1.2260631046068313e-08 
-4.638518741469869e-09 
-1.1778344072201768e-08 
-2.996979738623194e-08 
-5.810507624347762e-08 
-5.811593945165134e-08 
-2.998651697575774e-08 
-1.1790056834905943e-08 
-2.350023694803853e-08 
-5.736651079814764e-08 
-1.0838752365401303e-07 
-1.083689968240202e-07 
-5.734251222113014e-08 
-2.348929345398921e-08 
-3.3797690686539986e-08 
-7.620780024251202e-08 
-1.3610941877944853e-07 
-1.3573761792952105e-07 
-7.567721968372121e-08 
-3.348013126881332e-08 
-1.5211522908447446e-08 
-1.0802158343440054e-08 
1.2142614299570203e-08 
1.4425302537999656e-08 
-7.432117632706994e-09 
-1.303681796384023e-08 
1.1405094322401049e-07 
3.4983897314506566e-07 
7.527761764315944e-07 
7.616320051294999e-07 
3.628749731808984e-07 
1.2241128589986498e-07 
5.350348379805033e-07 
1.471758549978791e-06 
2.975251103429412e-06 
2.989350039382345e-06 
1.4954224500594296e-06 
5.541647662359148e-07 
1.647135146433371e-06 
4.190512246706172e-06 
8.13730358264465e-06 
8.060040679893323e-06 
4.07617500850261e-06 
1.5729864755288994e-06 
3.8952793311273636e-06 
9.635339758986507e-06 
1.765444511341185e-05 
1.6713858269471275e-05 
8.34241615166537e-06 
3.190605804366241e-06 
9.357920812286472e-06 
1.8510183591872127e-05 
2.964436220150876e-05 
2.4948064310344907e-05 
1.1173051855909052e-05 
4.076253122688018e-06 
1.1191114031975968e-05 
2.548887595427406e-05 
2.9331956802437834e-05 
1.1450590091959112e-05 
2.1552568853806097e-06 
2.866093151465053e-07 
4.149068408756038e-05 
-1.407532585645421e-06 
-6.128537692615827e-05 
-6.559069200737187e-05 
-3.284239522777861e-05 
-1.2768411034278781e-05 
-0.0004953208637714405 
-0.000470515986371254 
-0.0003689698156480836 
-0.00021190590011899244 
-7.791539409465165e-05 
-2.4247510276418023e-05 
-0.0010646117335344524 
-0.0009110683132632872 
-0.0005923545498361096 
-0.00029769851471413866 
-9.732054557920811e-05 
-2.6428268410236218e-05 
</DataArray>
<DataArray type="Float64" Name="Nodal_sigma_xy" NumberOfComponents="1" format="ascii" >
-0.0007750772937479698 
-0.0003453576961368425 
0.00023289634300692268 
0.0002328963430067611 
-0.0003453576961373269 
-0.0007750772937486155 
-0.0003934330548511708 
-0.0002578947313113907 
-4.538874126712348e-05 
-4.5388741267239396e-05 
-0.00025789473131168026 
-0.000393433054851518 
-3.224210856446703e-05 
-0.00016294643383526334 
-0.00032093251188686033 
-0.0003209325118868904 
-0.00016294643383529388 
-3.2242108564467936e-05 
-7.201715139751234e-05 
-0.0001631870312856059 
-0.00030080439302006485 
-0.0003008043930200478 
-0.00016318703128556566 
-7.201715139746582e-05 
-9.767550959404829e-05 
-0.0001731787217802233 
-0.0002779835234271726 
-0.0002779835234271516 
-0.00017317872178018324 
-9.76755095940101e-05 
-0.00010515747191952048 
-0.00017597511195847361 
-0.0002714461520861741 
-0.0002714461520861608 
-0.00017597511195844895 
-0.00010515747191949785 
-0.0001064108356316261 
-0.0001765662716345128 
-0.00027022831055408545 
-0.00027022831055407726 
-0.00017656627163449722 
-0.00010641083563161147 
-0.00010650003145540504 
-0.00017662499100668715 
-0.00027012499326999897 
-0.0002701249932699954 
-0.00017662499100667658 
-0.00010650003145539101 
-0.00010647007096974069 
-0.0001766194615394499 
-0.000270145502980036 
-0.00027014550298003366 
-0.00017661946153944106 
-0.00010647007096972763 
-0.00010645597227158667 
-0.00017661460965925647 
-0.00027015740420925877 
-0.00027015740420926137 
-0.0001766146096592569 
-0.00010645597227158243 
-0.00010645254294576958 
-0.00017661325960444818 
-0.00027016046892697074 
-0.00027016046892697524 
-0.00017661325960445143 
-0.00010645254294576695 
-0.00010645203992951754 
-0.00017661302244573727 
-0.000270160957593837 
-0.0002701609575938243 
-0.00017661302244570984 
-0.00010645203992948817 
-0.00010645202822844575 