<?xml version="1.0"?>
<VTKFile type="UnstructuredGrid" version="0.1" byte_order="LittleEndian" compressor="vtkZLibDataCompressor">
<UnstructuredGrid>
<Piece NumberOfPoints="306" NumberOfCells="250">
<PointData>
<DataArray type="Float64" Name="displacement" NumberOfComponents="3" format="ascii" >
0.0 0.0  0.
0.0 0.0  0.
0.0 0.0  0.
0.0 0.0  0.
0.0 0.0  0.
0.0 0.0  0.
0.18497828959273743 -0.12351533256113925  0.
0.09619408405199946 -0.043613685831342286  0.
0.031665304535098006 -0.012387792684478541  0.
-0.03166530453510291 -0.01238779268447939  0.
-0.09619408405200447 -0.04361368583134504  0.
-0.18497828959274396 -0.12351533256114491  0.
0.3720409544133253 -0.24395783042555555  0.
0.2154015562917878 -0.16978640514581106  0.
0.06963483513375347 -0.1297734464408596  0.
-0.06963483513376427 -0.12977344644086097  0.
-0.21540155629179902 -0.16978640514581536  0.
-0.3720409544133375 -0.24395783042556268  0.
0.55771576147889 -0.4386118943741438  0.
0.3298948763474274 -0.3649190756008773  0.
0.10894183659816901 -0.3274621019576372  0.
-0.10894183659818615 -0.32746210195763875  0.
-0.32989487634744485 -0.364919075600882  0.
-0.5577157614789079 -0.4386118943741514  0.
0.7414308859402445 -0.7065045065766031  0.
0.44082382900915534 -0.6346869416366844  0.
0.14619907924796668 -0.5985912535302014  0.
-0.14619907924799022 -0.598591253530203  0.
-0.44082382900917905 -0.6346869416366892  0.
-0.7414308859402684 -0.7065045065766109  0.
0.9215434304363791 -1.0475468016547853  0.
0.5489858733706151 -0.9773228053990075  0.
0.18232892415487267 -0.942191400417136  0.
-0.18232892415490248 -0.9421914004171376  0.
-0.548985873370645 -0.9773228053990121  0.
-0.921543430436409 -1.0475468016547929  0.
1.097752199981305 -1.4599320738693145  0.
0.6547101471052077 -1.3912822328057675  0.
0.21757922829041237 -1.356957152111993  0.
-0.2175792282904484 -1.3569571521119943  0.
-0.6547101471052438 -1.3912822328057721  0.
-1.097752199981341 -1.459932073869322  0.
1.2699996790201717 -1.9420289750209365  0.
0.7580539076299373 -1.874940080772167  0.
0.25202728686426573 -1.8413967930705637  0.
-0.2520272868643079 -1.8413967930705653  0.
-0.7580539076299796 -1.8749400807721714  0.
-1.269999679020214 -1.942028975020944  0.
1.438284909629386 -2.4922340616784293  0.
0.8590234769785839 -2.426705319662875  0.
0.2856833674080817 -2.3939413051759346  0.
-0.2856833674081301 -2.393941305175936  0.
-0.8590234769786322 -2.426705319662879  0.
-1.4382849096294341 -2.492234061678437  0.
1.6026096212925773 -3.1089609725058813  0.
0.9576179916335117 -3.0449923391851996  0.
0.3185480616388042 -3.013008095700914  0.
-0.31854806163885874 -3.0130080957009153  0.
-0.9576179916335661 -3.044992339185204  0.
-1.6026096212926322 -3.1089609725058884  0.
1.762974535821035 -3.790625644330593  0.
1.0538369072183154 -3.7282171969366207  0.
0.35062100370904875 -3.697012980593995  0.
-0.35062100370910954 -3.6970129805939966  0.
-1.053836907218376 -3.728217196936625  0.
-1.7629745358210955 -3.790625644330601  0.
1.9193798054546487 -4.535644309326711  0.
1.1476800723144995 -4.474796068450774  0.
0.38190205558437124 -4.44437194721968  0.
-0.38190205558443796 -4.444371947219682  0.
-1.1476800723145664 -4.474796068450779  0.
-1.9193798054547155 -4.5356443093267185  0.
2.0718254500256283 -5.3424331493604775  0.
1.2391474617258018 -5.283145119481563  0.
0.4123911856748973 -5.253501103912203  0.
-0.4123911856749696 -5.253501103912203  0.
-1.2391474617258749 -5.283145119481565  0.
-2.071825450025701 -5.342433149360483  0.
2.2203114689289434 -6.209408321562151  0.
1.3282390738201602 -6.151680503090412  0.
0.44208838995593286 -6.122816593679865  0.
-0.44208838995600946 -6.122816593679865  0.
-1.3282390738202394 -6.151680503090414  0.
-2.220311468929024 -6.209408321562155  0.
2.364837861068848 -7.134985976144964  0.
1.4149549092352416 -7.078818369032257  0.
0.47099366849846813 -7.0507345654455795  0.
-0.4709936684985473 -7.050734565445579  0.
-1.414954909235327 -7.078818369032256  0.
-2.364837861068938 -7.134985976144968  0.
2.505404626096396 -8.117582262246199  0.
1.49929496826125 -8.062974866454049  0.
0.4991070215196685 -8.035671168555863  0.
-0.4991070215197465 -8.035671168555861  0.
-1.4992949682613415 -8.062974866454049  0.
-2.5054046260965026 -8.117582262246204  0.
2.6420117639448 -9.155613328943195  0.
1.5812592509674008 -9.102566144461196  0.
0.5264284490893292 -9.076042552220885  0.
-0.5264284490894054 -9.076042552220889  0.
-1.5812592509674979 -9.102566144461205  0.
-2.642011763944932 -9.155613328943216  0.
2.774659274607543 -10.247495325345472  0.
1.6608477573636287 -10.196008352171821  0.
0.5529579512211383 -10.170264865585342  0.
-0.5529579512212253 -10.170264865585366  0.
-1.660847757363731 -10.196008352171878  0.
-2.77465927460771 -10.247495325345543  0.
2.903347158085553 -11.391644400575942  0.
1.7380604874500891 -11.34171763871052  0.
0.5786955279164587 -11.316754257777939  0.
-0.5786955279166129 -11.31675425777802  0.
-1.7380604874501948 -11.341717638710707  0.
-2.903347158085738 -11.391644400576146  0.
3.0280754143794923 -12.586476703760612  0.
1.8128974412263708 -12.538110153203451  0.
0.6036411791750735 -12.513926877925016  0.
-0.6036411791754532 -12.513926877925226  0.
-1.8128974412264776 -12.538110153203926  0.
-3.028075414379579 -12.58647670376108  0.
3.148844043489656 -13.83040838402594  0.
1.8853586186923266 -13.783602044777023  0.
0.6277949049967658 -13.760198875152854  0.
-0.6277949049977212 -13.760198875153279  0.
-1.8853586186924312 -13.783602044777977  0.
-3.1488440434892686 -13.830408384026793  0.
3.2656530454163395 -15.121855590498551  0.
1.9554440198479242 -15.076609462557789  0.
0.6511567053813818 -15.05398639858789  0.
-0.6511567053835031 -15.053986398588519  0.
-1.955444019848028 -15.07660946255919  0.
-3.2656530454145685 -15.121855590499573  0.
3.3785024201599567 -16.45923447230551  0.
2.0231536446931497 -16.415548555672732  0.
0.6737265803289293 -16.39370559735679  0.
-0.6737265803327797 -16.393705597357123  0.
-2.0231536446932745 -16.415548555673453  0.
-3.3785024201550686 -16.459234472305223  0.
3.4873921677207727 -17.840961178574922  0.
2.0884874932279747 -17.798835473249905  0.
0.6955045298400805 -17.777772620586692  0.
-0.695504529844878 -17.777772620584784  0.
-2.0884874932281985 -17.79883547324555  0.
-3.4873921677105013 -17.840961178568488  0.
3.5923222880977335 -19.26545185843672  0.
2.1514455654523355 -19.224886364419458  0.
0.7164905539174808 -19.20460361740569  0.
-0.7164905539171535 -19.204603617396277  0.
-2.1514455654528657 -19.22488636439819  0.
-3.592322288081921 -19.265451858412295  0.
3.6932927812852165 -20.731122661022756  0.
2.212027861366125 -20.692117378314382  0.
0.7366846525683026 -20.672614736943153  0.
-0.7366846525424343 -20.672614736915094  0.
-2.2120278613673836 -20.692117378251247  0.
-3.693292781274951 -20.731122660957645  0.
3.7903036472660108 -22.236389735463163  0.
2.270234380969236 -22.19894466406828  0.
0.7560868258077621 -22.18022212832874  0.
-0.7560868257055045 -22.1802221282644  0.
-2.27023438097186 -22.198944663923957  0.
-3.7903036473068012 -22.236389735327247  0.
3.883354885999882 -23.779669230871285  0.
2.326065124261798 -23.743784370802544  0.
0.7746970736600393 -23.72584194068678  0.
-0.7746970733821827 -23.725841940572753  0.
-2.326065124266165 -23.743784370547786  0.
-3.883354886217707 -23.77966923066063  0.
3.9724464974137663 -25.359377296301524  0.
2.3795200912448884 -25.325052647586134  0.
0.7925153961438236 -25.30789032311835  0.
-0.7925153955537807 -25.30789032299191  0.
-2.3795200912492214 -25.32505264730662  0.
-3.972446498080732 -25.359377296156225  0.
4.057578481421535 -26.973930080657908  0.
2.430599281922177 -26.94116564333998  0.
0.8095417932092391 -26.924783424658703  0.
-0.8095417922701742 -26.924783424739466  0.
-2.4305992819173587 -26.94116564353239  0.
-4.057578482982008 -26.973930081162866  0.
4.138750838054307 -28.62174373254337  0.
2.4793026963028746 -28.59053950665983  0.
0.82577626455855 -28.574937394198056  0.
-0.8257762638290981 -28.57493739517807  0.
-2.4793026962613665 -28.590539508882202  0.
-4.138750840890414 -28.62174373533047  0.
4.215963567883379 -30.301234400126123  0.
2.525630334405105 -30.271590385597417  0.
0.8412188092501283 -30.256768380382884  0.
-0.841218811172186 -30.256768383914103  0.
-2.5256303342631243 -30.271590393557183  0.
-4.215963571234654 -30.3012344087437  0.
4.289216673049879 -32.01081823138108  0.
2.5695821962542174 -31.98273442769546  0.
0.855869425030648 -31.968692531628275  0.
-0.8558694365527797 -31.968692540785277  0.
-2.569582195897296 -31.982734448267458  0.
-4.289216671873593 -32.01081825168048  0.
4.35851015922473 -33.748911375754695  0.
2.6111582818585832 -33.722387781261745  0.
0.8697281076941422 -33.709125996678736  0.
-0.8697281441769352 -33.70912601529986  0.
-2.6111582811556073 -33.72238782295813  0.
-4.3585101371362045 -33.748911412947294  0.
4.423844038176824 -35.513929989624025  0.
2.6503585911207055 -35.48896660032198  0.
0.8827948519560511 -35.47648492680396  0.
-0.8827949393294259 -35.47648495444083  0.
-2.650358590135891 -35.488966661856274  0.
-4.423843955253169 -35.51393003441982  0.
4.485218327976064 -37.30429024967696  0.
2.6871831236041768 -37.28088705798373  0.
0.8950696582932053 -37.26918548174492  0.
-0.8950698215331053 -37.26918549672082  0.
-2.6871831232750063 -37.280887090106184  0.
-4.48521810815347 -37.30429023766119  0.
4.542633040519206 -39.11840837857283  0.
2.721631878052926 -39.096565374649764  0.
0.9065525559817131 -39.08564384231157  0.
-0.9065527615049671 -39.08564375959249  0.
-2.7216318818250826 -39.09656518555258  0.
-4.542632583941688 -39.11840809825425  0.
4.5960881302140395 -40.954700679078115  0.
2.7537048516548435 -40.93441786253807  0.
0.9172436605224813 -40.92427623036647  0.
-0.9172436437007889 -40.92427581950042  0.
-2.7537048685597383 -40.934416934212166  0.
-4.596087428243323 -40.95469961164577  0.
4.64558335180066 -42.811583538853164  0.
2.783402039546245 -42.79286095902457  0.
0.9271432857979973 -42.7834989241665  0.
-0.9271421540693089 -42.78349769662773  0.
-2.7834020881473 -42.792858196943186  0.
-4.645582886533149 -42.81158068837224  0.
4.691117952951797 -44.68747327302059  0.
2.8107234366948113 -44.670311130777  0.
0.9362520988631747 -44.66172821642153  0.
-0.9362476252614643 -44.66172539671197  0.
-2.8107235450185253 -44.67030480559678  0.
-4.691119711983527 -44.687467311983326  0.
4.732690171525683 -46.580785466676254  0.
2.8356690485313636 -46.56518431440743  0.
0.9445711638628762 -46.55738016582445  0.
-0.9445589945555343 -46.557375156756954  0.
-2.83566923357407 -46.56517312405897  0.
-4.732699668334192 -46.580776200041804  0.
4.77029679486873 -48.48993313658927  0.
2.858238927960411 -48.47589416324778  0.
0.9521013206901235 -48.46886980479018  0.
-0.9520754390803285 -48.46886421953551  0.
-2.8582391124094477 -48.47588180856803  0.
-4.770325961417091 -48.48992665608703  0.
4.803933984341079 -50.41332274966633  0.
2.8784332783459714 -50.40084785332656  0.
0.9588404609789831 -50.39460925078065  0.
-0.9587991580296762 -50.394612654560284  0.
-2.8784330668674576 -50.400856010879906  0.
-4.804002348324781 -50.4133445851498  0.
4.833602772484038 -52.34934747837328  0.
2.8962527028002567 -52.33843833588888  0.
0.9647757547284763 -52.33300410455853  0.
-0.9647432956364613 -52.33304682955147  0.
-2.8962508849393918 -52.338535084086885  0.
-4.8337273311575695 -52.34946912367345  0.
4.859327390067027 -54.296381059701076  0.
2.9116984566290784 -54.287034024481706  0.
0.9698661479604888 -54.28244972738127  0.
-0.9699491112381623 -54.28260376490349  0.
-2.911692325067358 -54.28738208106267  0.
-4.859475159749904 -54.296757708317564  0.
4.881199881156624 -56.2527820578736  0.
2.92477097111947 -56.24498009619332  0.
0.9740107625634331 -56.24133343484557  0.
-0.9745131205084748 -56.24173543686739  0.
-2.924755518968019 -56.245879633207515  0.
-4.881151812190589 -56.253672946739734  0.
4.899484311301748 -58.21696661389925  0.
2.9354543407813245 -58.210637936756996  0.
0.9770043833874867 -58.208087720720336  0.
-0.9785973869066323 -58.208895905301645  0.
-2.9354275307886417 -58.2124714466705  0.
-4.8985176132653345 -58.218593191957034  0.
4.914773475374146 -60.18754657092696  0.
2.943639369816543 -60.18265625685346  0.
0.9785297164885686 -60.181303133053056  0.
-0.982342672289903 -60.18253760353274  0.
-2.943616140202734 -60.1853253702825  0.
-4.91115495615061 -60.189564882476596  0.
4.928514718705799 -62.164548161046895  0.
2.9488777503863286 -62.16032141803942  0.
0.9782997480376568 -62.16036916501571  0.
-0.9853201238256764 -62.160733520011064  0.
-2.949091893544581 -62.16183025592174  0.
-4.918685265295186 -62.163907717349936  0.
4.942029803072092 -64.14880971918305  0.
2.9496899671300394 -64.14787685268105  0.
0.9783897615601365 -64.14395063695721  0.
-0.9862588071150029 -64.13997068119245  0.
-2.951599951937642 -64.13813630018846  0.
-4.921537128115204 -64.13813285033967  0.
4.958915295251286 -66.18173123327094  0.
2.9560822702597243 -66.1438946450919  0.
0.9825499788204519 -66.12319498547257  0.
-0.984520619824416 -66.11331369342282  0.
-2.9517581769688745 -66.11005570217826  0.
-4.9219266998261615 -66.10965115222383  0.
</DataArray>
<DataArray type="Float64" Name="Nodal_sigma_xx" NumberOfComponents="1" format="ascii" >
0.08957206264990088 
0.06561786613667375 
0.020831834811722485 
-0.020831834811725805 
-0.06561786613667728 
-0.08957206264990461 
0.08745434127278971 
0.06544889448722808 
0.021721723850832375 
-0.02172172385083582 
-0.06544889448723158 
-0.08745434127279325 
0.08477286673513287 
0.06440115425077521 
0.022014720883207873 
-0.022014720883211453 
-0.06440115425077866 
-0.08477286673513622 
0.08340074902720794 
0.06277698749249154 
0.021076612978886668 
-0.021076612978890234 
-0.062776987492495 
-0.08340074902721134 
0.08172914760811656 
0.06134541712172216 
0.02048084331766299 
-0.020480843317666503 
-0.0613454171217256 
-0.08172914760811997 
0.07998038258013837 
0.059990046441367496 
0.01999985515129744 
-0.019999855151300934 
-0.05999004644137097 
-0.07998038258014181 
0.07820630266929601 
0.05865427419588216 
0.019551122861233287 
-0.01955112286123676 
-0.05865427419588566 
-0.07820630266929954 
0.07642891526401066 
0.05732128715037475 
0.019106829518368548 
-0.01910682951837204 
-0.05732128715037817 
-0.07642891526401402 
0.0746513278905136 
0.05598838515940592 
0.01866272121414821 
-0.018662721214151752 
-0.055988385159409335 
-0.07465132789051698 
0.07287386038042662 
0.054655375804554665 
0.01821844561434044 
-0.018218445614344013 
-0.054655375804558134 
-0.07287386038043007 
0.07109643788145278 
0.05332232703139195 
0.01777410809066469 
-0.017774108090668157 
-0.05332232703139542 
-0.07109643788145623 
0.0693190257515818 
0.05198926974410928 
0.017329756868317562 
-0.017329756868320927 
-0.05198926974411282 
-0.0693190257515854 
0.06754161494685787 
0.05065621142220991 
0.016885403948780145 
-0.01688540394878342 
-0.05065621142221359 
-0.067541614946862 
0.06576420412198641 
0.04932315314329412 
0.01644105108230022 
-0.01644105108230308 
-0.04932315314329787 
-0.06576420412199098 
0.06398679322651837 
0.047990094927631115 
0.015996698314371637 
-0.015996698314373323 
-0.04799009492763497 
-0.0639867932265239 
0.06220938230826028 
0.04665703673140718 
0.015552345577277324 
-0.015552345577277167 
-0.046657036731411305 
-0.062209382308267704 
0.06043197138551218 
0.04532397853884649 
0.015107992846090977 
-0.01510799284608962 
-0.04532397853885083 
-0.06043197138552128 
0.058654560462308755 
0.043990920346624024 
0.014663640115468536 
-0.01466364011547094 
-0.04399092034662711 
-0.05865456046231457 
0.05687714953916889 
0.04265786215434886 
0.014219287384755369 
-0.014219287384777991 
-0.04265786215434425 
-0.056877149539150615 
0.055099738616096156 
0.04132480396204658 
0.013774934653966526 
-0.013774934654051472 
-0.04132480396201885 
-0.055099738615998706 
0.05332232769309156 
0.0399917457697498 
0.01333058192311968 
-0.013330581923353695 
-0.039991745769669844 
-0.05332232769280097 
0.05154491677017636 
0.03865868757747124 
0.012886229192206862 
-0.012886229192717043 
-0.03865868757729957 
-0.05154491676951746 
0.049767505847319385 
0.03732562938519657 
0.012441876461261173 
-0.012441876462112724 
-0.03732562938492489 
-0.049767505846175744 
0.047990094924242936 
0.03599257119283509 
0.011997523730512267 
-0.011997523731311806 
-0.035992571192637365 
-0.04799009492305384 
0.04621268399997997 
0.034659513000103025 
0.011553171000727152 
-0.011553170999547507 
-0.034659513000720926 
-0.04621268400111861 
0.04443527307207386 
0.03332645480632791 
0.01110881827380663 
-0.011108818264918462 
-0.033326454809847486 
-0.04443527308282676 
0.04265786213563002 
0.031993396610268704 
0.01066446555343893 
-0.010664465523736224 
-0.031993396621257816 
-0.042657862173072714 
0.04088045118363673 
0.030660338410403602 
0.010220112844652275 
-0.010220112770973344 
-0.030660338436474185 
-0.04088045127886761 
0.03910304021318074 
0.029327280207023937 
0.0097757601486122 
-0.009775760005464379 
-0.029327280255205646 
-0.03910304040312526 
0.03732562924882017 
0.027994222009184784 
0.009331407443983558 
-0.009331407248543661 
-0.027994222068396635 
-0.037325629521288234 
0.03554821840459765 
0.026661163851868844 
0.008887054638763457 
-0.008887054592214352 
-0.026661163841065087 
-0.035548218519314605 
0.03377080801295425 
0.0253281058291711 
0.008442701472635743 
-0.008442702296794082 
-0.02532810547911598 
-0.03377080706476026 
0.03199339882321912 
0.023995048139189797 
0.007998347372842508 
-0.007998350935047818 
-0.023995046784455305 
-0.03199339440829044 
0.03021599213410099 
0.022661991093126235 
0.0075539913788488615 
-0.00755400146754072 
-0.022661987445902487 
-0.030215979251177295 
0.02843858930013085 
0.02132893491955725 
0.007109632584850809 
-0.00710965480013721 
-0.021328927234919 
-0.028438560238845615 
0.026661189056879787 
0.019995878928541527 
0.0066652723128818375 
-0.006665309610592562 
-0.019995866841323574 
-0.026661138635901617 
0.02488377929765271 
0.018662819155808613 
0.006220920578815685 
-0.006220955880208991 
-0.018662810227643337 
-0.024883726551201836 
0.023106317781021304 
0.01732974319632295 
0.0057766108983209495 
-0.005776560077288064 
-0.017329769788832203 
-0.023106366238070976 
0.02132869696085982 
0.015996621576513624 
0.0053324264819020264 
-0.005332038934777241 
-0.015996774962332892 
-0.021329165283474685 
0.019550702057407686 
0.014663399778336349 
0.004888529190991797 
-0.004887230525022447 
-0.014663880219697958 
-0.01955233850663244 
0.017772024157396142 
0.013330010818045513 
0.0044451408975013556 
-0.004441913690821316 
-0.01333115297620175 
-0.017776194254453037 
0.01599252822752186 
0.011996468474252644 
0.004002319509629241 
-0.003996037255445644 
-0.011998583623392274 
-0.016000862437618203 
0.014213269664463153 
0.010663176135591226 
0.003559154848427493 
-0.0035505443412797424 
-0.010665789680661035 
-0.014225263588626897 
0.0124391806257871 
0.00933169919253224 
0.003111679831772182 
-0.003109502982552457 
-0.009331270144666483 
-0.012444392419961071 
0.010684872557877428 
0.00800613104248803 
0.0026485047570130923 
-0.002684292451450448 
-0.007990941035951346 
-0.010643677182074244 
0.008983663152627334 
0.00669465586497732 
0.002143548479671248 
-0.0022990190037073107 
-0.00663538005598493 
-0.008791273722540047 
0.007400143006451721 
0.005405132119904628 
0.0015468531290404462 
-0.0019874604174410565 
-0.005246924632268255 
-0.006835343404931042 
0.006007618713552204 
0.004129238128997322 
0.0007889279369627761 
-0.0017569977427592857 
-0.0037927372937396997 
-0.004744480772477715 
0.00486630356668003 
0.002744056991121636 
-0.00015668601043125946 
-0.0014260306805707842 
-0.002276465772910117 
-0.002636052621104427 
0.0029574368138513187 
0.0012393676480949108 
-0.0005688561943924201 
-0.0007682836222385892 
-0.0009098622125352971 
-0.000942168051716759 
0.0015492054468213548 
0.0004825996821822442 
-0.0004640178382434749 
-0.0003439265971734751 
-0.00031058488516739655 
-0.00027734617001792626 
</DataArray>
<DataArray type="Float64" Name="Nodal_sigma_yy" NumberOfComponents="1" format="ascii" >
0.021701006188522345 
0.016730713682867833 
0.005880210588606371 
-0.005880210588607503 
-0.016730713682868898 
-0.02170100618852337 
0.010253473843799921 
0.008638820903173977 
0.0035120839812738053 
-0.0035120839812746024 
-0.00863882090317462 
-0.010253473843800459 
-0.0006007780246540615 
0.00011254105516249379 
0.00041293006748943943 
-0.0004129300674897198 
-0.00011254105516263256 
0.0006007780246540043 
-7.54569888148874e-05 
-0.0002491376456653328 
-0.00021140915125790255 
0.00021140915125787956 
0.0002491376456653176 
7.545698881484923e-05 
-8.200003187953595e-05 
-0.00010798749799247618 
-6.698748205269416e-05 
6.698748205273699e-05 
0.00010798749799248051 
8.200003187951513e-05 
-1.2383458596049515e-05 
-2.2786103493059942e-05 
-1.6594374195038112e-05 
1.6594374195031823e-05 
2.2786103493048233e-05 
1.2383458596026964e-05 
-2.0484091585136477e-06 
-3.061636565908875e-06 
-2.037431986647443e-06 
2.03743198668745e-06 
3.0616365658850224e-06 
2.04840915840436e-06 
1.1722847516847101e-07 
6.766385857301035e-08 
9.049620957387195e-09 
-9.049621018861458e-09 
-6.766385853874957e-08 
-1.1722847510255152e-07 
1.0252617718350954e-07 
1.58805344751059e-07 
1.0754225607782645e-07 
-1.0754225625812927e-07 
-1.5880534467733326e-07 
-1.0252617700136357e-07 
3.401931104179967e-08 
5.170581851912659e-08 
3.469616292211576e-08 
-3.469616307650615e-08 
-5.170581847098801e-08 
-3.401931094118571e-08 
6.130736477510945e-09 
1.0026936694135236e-08 
6.9615684716427956e-09 
-6.961568512408797e-09 
-1.0026936742273812e-08 
-6.130736427203964e-09 
5.883448971066851e-10 
1.0136417000899955e-09 
7.194692235100268e-10 
-7.194694161727529e-10 
-1.0136419572627509e-09 
-5.883451382332483e-10 
-9.876822623655634e-11 
-1.2586548860452074e-10 
-7.648165905932078e-11 
7.648098240874493e-11 
1.2586498705259574e-10 
9.87674421415452e-11 
-5.919397090548006e-11 
-8.968991673484472e-11 
-6.009336864926107e-11 
6.009230222800421e-11 
8.968937550112022e-11 
5.919327181191925e-11 
-1.5760283703092348e-11 
-2.466017082376759e-11 
-1.6780421399197748e-11 
1.6779310634072037e-11 
2.4659671440246944e-11 
1.5759936758397153e-11 
-2.558973866140235e-12 
-4.1894846966594734e-12 
-2.909827489638167e-12 
2.9105583503226395e-12 
4.189979092850127e-12 
2.5591820329573522e-12 
-1.3847083202289667e-13 
-2.7284424719553613e-13 
-2.011454696380921e-13 
2.0935233798272113e-13 
2.7712099108512245e-13 
1.4046402929679402e-13 
7.554720737878995e-14 
1.0928064009263494e-13 
8.036643182537939e-14 
-5.071469503029058e-14 
-9.447672678908337e-14 
-6.980527267330672e-14 
3.878754956110342e-14 
6.781511116549233e-14 
7.175054821118021e-14 
7.995123660342607e-15 
-2.6987526796640182e-14 
-2.3306877261486392e-14 
2.4754504002189037e-14 
5.579239327480057e-14 
9.257715037278014e-14 
7.707370982754091e-14 
3.2928954701860746e-14 
1.003450794678784e-14 
3.157543670972984e-14 
7.445042846110361e-14 
1.354210797319122e-13 
1.3305535059154883e-13 
7.05841635140203e-14 
2.8574365096289966e-14 
3.1220685758892586e-14 
6.321028769851189e-14 
1.0210018594469794e-13 
1.0168146706568404e-13 
6.245806823124145e-14 
3.0553684582379503e-14 
-3.227713235576246e-14 
-1.216622289024194e-13 
-2.841774125045271e-13 
-2.843788572681749e-13 
-1.2203194184323696e-13 
-3.261366871010196e-14 
-2.905948051634688e-13 
-8.167550837046011e-13 
-1.67515675809915e-12 
-1.6751712864082613e-12 
-8.171638279236282e-13 
-2.9138323698330026e-13 
-1.0074779552282642e-12 
-2.6626895133219364e-12 
-5.27896861423835e-12 
-5.2792459531540714e-12 
-2.6632565510581463e-12 
-1.0080573528692405e-12 
-2.5569104125655606e-12 
-6.501871306976992e-12 
-1.2600615592172487e-11 
-1.2600581765064706e-11 
-6.502202639160903e-12 
-2.557640731148947e-12 
-5.0863488768038145e-12 
-1.2414684948461319e-11 
-2.3451652241251314e-11 
-2.3450627236517446e-11 
-1.2414244545538855e-11 
-5.087518080426623e-12 
-7.2620806937373494e-12 
-1.636927550972833e-11 
-2.927561638206219e-11 
-2.927454475663491e-11 
-1.6368385162904286e-11 
-7.2624432509438286e-12 
-2.93617300611837e-12 
-1.7012443970926272e-12 
3.4270090834131323e-12 
3.4272599677958454e-12 
-1.7004145487498068e-12 
-2.9350150781981554e-12 
2.5763897959496518e-11 
7.78812637210885e-11 
1.6535919031626656e-10 
1.6535902725225982e-10 
7.78818903899442e-11 
2.5765477425221395e-11 
1.190259618297218e-10 
3.226556127312874e-10 
6.486300870597959e-10 
6.486307813828671e-10 
3.2265595056868435e-10 
1.1902524885837318e-10 
3.462731490433413e-10 
8.970773299546431e-10 
1.7578598835072973e-09 
1.7578639712747483e-09 
8.970830483621614e-10 
3.462764103234761e-10 
7.792592777652874e-10 
1.944775438562571e-09 
3.72611682348113e-09 
3.7261378175383175e-09 
1.9448075569677287e-09 
7.792815264612285e-10 
1.3477288148336375e-09 
3.1932147388519933e-09 
5.915702193295264e-09 
5.915766106579651e-09 
3.1933117328793864e-09 
1.3477949763196495e-09 
1.3971992261080368e-09 
2.8006800833558013e-09 
4.550327432884492e-09 
4.5503303461357295e-09 
2.800702331401221e-09 
1.3972378956964016e-09 
-1.3459551060496233e-09 
-5.243351380575072e-09 
-1.2286377694506771e-08 
-1.2287732391785605e-08 
-5.245273729248545e-09 
-1.3470904088389024e-09 
-1.2654230887101936e-08 
-3.562496125289645e-08 
-7.30657627649007e-08 
-7.307570688703234e-08 
-3.563947445863781e-08 
-1.2663369054321388e-08 
-4.4024102349715655e-08 
-1.1641155190018123e-07 
-2.3083527640873833e-07 
-2.3087880582405365e-07 
-1.1647599350197557e-07 
-4.4065926722673676e-08 
-1.118942662388725e-07 
-2.847130733021463e-07 
-5.519982218827457e-07 
-5.521014234322654e-07 
-2.8487191061892653e-07 
-1.1200553777339362e-07 
-2.2325224813832603e-07 
-5.449818482451772e-07 
-1.029681471680823e-06 
-1.0295054707648333e-06 
-5.447538672886899e-07 
-2.2314828805733086e-07 
-3.21078060563397e-07 
-7.239740992216401e-07 
-1.2930394761901282e-06 
-1.2895073696065138e-06 
-7.189335869655224e-07 
-3.180612492183904e-07 
-1.4450946798872863e-07 
-1.0262050184189084e-07 
1.1535483737283104e-07 
1.3704037399780771e-07 
-7.06051167335942e-08 
-1.2384977102208872e-07 
1.083483957727005e-06 
3.3234702458301854e-06 
7.151373678705139e-06 
7.235504048086196e-06 
3.4473122445760162e-06 
1.1629072164565536e-06 
5.082830957083961e-06 
1.398170622303761e-05 
2.826488548689572e-05 
2.8398825376963927e-05 
1.420651327350877e-05 
5.264565277889868e-06 
1.564778389092172e-05 
3.9809866343214044e-05 
7.73043840391642e-05 
7.657038646299069e-05 
3.87236625807251e-05 
1.4943371518290859e-05 
3.7005153646109184e-05 
9.153572771262923e-05 
0.00016771722858123815 
0.00015878165356132508 
7.925295344301663e-05 
3.031075514671011e-05 
8.89002477210939e-05 
0.00017584674412583662 
0.00028162144091643435 
0.00023700661094897782 
0.00010614399263092779 
3.87244046661893e-05 
0.00010631558330960792 
0.00024214432156582374 
0.00027865358961897145 
0.00010878060587435383 
2.0474940412177527e-05 
2.7227884915507843e-06 
0.00039416149883382464 
-1.3371559565405707e-05 
-0.0005822110808067762 
-0.00062311157407245 
-0.00031200275466136104 
-0.00012129990482673842 
-0.004705548205826857 
-0.00446990187052792 
-0.0035052132486636405 
-0.0020131060511294763 
-0.0007401962438969362 
-0.00023035134763321825 
-0.010113811468573729 
-0.008655148976001786 
-0.005627368223448551 
-0.002828135889777641 
-0.0009245451829989616 
-0.00025106854990989975 
</DataArray>
<DataArray type="Float64" Name="Nodal_sigma_xy" NumberOfComponents="1" format="ascii" >
-0.0073632342905774004 
-0.0032808981132830314 
0.00221251525856784 
0.002212515258567675 
-0.003280898113283521 
-0.00736323429057805 
-0.003737614021069228 
-0.0024499999474432944 
-0.00043119304202618393 
-0.0004311930420263023 
-0.0024499999474435876 
-0.0037376140210695777 
-0.0003063000313563949 
-0.0015479911214222113 
-0.0030488588629039404 
-0.0030488588629039737 
-0.001547991121422246 
-0.0003063000313563968 
-0.0006841629382692248 
-0.001550276797200293 
-0.002857641733669504 
-0.0028576417336694956 
-0.0015502767972002654 
-0.000684162938269186 
-0.0009279173411356585 
-0.0016451978568989142 
-0.002640843472537689 
-0.0026408434725376673 
-0.0016451978568988695 
-0.0009279173411356123 
-0.0009989959832274655 
-0.0016717635635922644 
-0.0025787384447984282 
-0.002578738444798408 
-0.0016717635635922334 
-0.000998995983227444 
-0.0010109029384924083 
-0.001677379580514601 
-0.0025671689502436076 
-0.0025671689502436003 
-0.0016773795805145831 
-0.0010109029384923875 
-0.0010117502988183451 
-0.0016779374145503498 
-0.002566187436044912 
-0.002566187436044899 
-0.0016779374145503194 
-0.0010117502988183102 
-0.0010114656742045642 
-0.0016778848846116727 
-0.002566382278290401 
-0.0025663822782904036 
-0.001677884884611677 
-0.001011465674204567 
-0.0010113317365721898 
-0.0016778387917499805 
-0.002566495339968221 
-0.0025664953399682448 
-0.0016778387917500287 
-0.0010113317365722393 
-0.0010112991579769304 
-0.0016778259662293107 
-0.0025665244547864578 
-0.002566524454786476 
-0.0016778259662293417 
-0.0010112991579769562 
-0.0010112943793225263 
-0.0016778237132214846 
-0.0025665290971215696 
-0.0025665290971214937 
-0.0016778237132213407 
-0.0010112943793223904 
-0.0010112942681623329 
-0.0016778235533400929 
-0.002566529312583272 
-0.002566529312583105 
-0.0016778235533397978 
-0.001011294268162077 
-0.0010112944541437112 
-0.0016778236031981687 
-0.002566529169734908 
-0.002566529169734496 
-0.0016778236031974644 
-0.001011294454143127 
-0.0010112945223937429 
-0.0016778236277447196 
-0.002566529111063915 
-0.0025665291110631584 
-0.0016778236277433165 
-0.0010112945223924494 
-0.0010112945369301937 
-0.0016778236337432007 
-0.0025665290977977466 
-0.0025665290977968593 
-0.0016778236337412493 
-0.0010112945369280652 
-0.0010112945386837409 
-0.0016778236346387718 
-0.0025665290960237633 
-0.0025665290960241076 
-0.001677823634638443 
-0.001011294538682395 
-0.0010112945385986794 