<?xml version="1.0"?>
<VTKFile type="UnstructuredGrid" version="0.1" byte_order="LittleEndian" compressor="vtkZLibDataCompressor">
<UnstructuredGrid>
<Piece NumberOfPoints="306" NumberOfCells="250">
<PointData>
<DataArray type="Float64" Name="displacement" NumberOfComponents="3" format="ascii" >
0.0 0.0  0.
0.0 0.0  0.
0.0 0.0  0.
0.0 0.0  0.
0.0 0.0  0.
0.0 0.0  0.
0.13629979233150918 -0.09101129767664222  0.
0.07087985140674542 -0.03213640008625779  0.
0.023332329657443154 -0.009127847241197511  0.
-0.023332329657448015 -0.009127847241198346  0.
-0.07087985140675042 -0.032136400086260515  0.
-0.13629979233151568 -0.09101129767664784  0.
0.27413544009406565 -0.1797584013662256  0.
0.15871693621502161 -0.12510577221272273  0.
0.05130987851961331 -0.09562253948275494  0.
-0.051309878519624014 -0.09562253948275631  0.
-0.15871693621503274 -0.125105772212727  0.
-0.27413544009407775 -0.17975840136623267  0.
0.4109484558266043 -0.3231877116441536  0.
0.24308043520339795 -0.2688877399164769  0.
0.08027293223023828 -0.2412878646004021  0.
-0.08027293223025529 -0.24128786460040366  0.
-0.24308043520341527 -0.26888773991648157  0.
-0.4109484558266221 -0.3231877116441612  0.
0.5463174949034083 -0.5205822680038883  0.
0.3248175582173124 -0.4676640622586789  0.
0.10772563734061817 -0.4410672394433727  0.
-0.10772563734064156 -0.4410672394433743  0.
-0.32481755821733593 -0.46766406225868357  0.
-0.546317494903432 -0.5205822680038961  0.
0.6790320013742598 -0.7718765906931098  0.
0.4045159066941864 -0.7201325934520045  0.
0.1343476283246566 -0.6942462950443071  0.
-0.13434762832468627 -0.6942462950443087  0.
-0.4045159066942161 -0.7201325934520092  0.
-0.6790320013742895 -0.7718765906931175  0.
0.8088700420915882 -1.075739422851225  0.
0.4824180031302103 -1.0251553294359745  0.
0.16032153663505652 -0.9998631647142433  0.
-0.1603215366350924 -0.9998631647142447  0.
-0.48241800313024624 -1.025155329435979  0.
-0.808870042091624 -1.0757394228512327  0.
0.9357892371728719 -1.4309687184366777  0.
0.5585660372010716 -1.3815347963586317  0.
0.18570431663684528 -1.3568186896311325  0.
-0.18570431663688733 -1.356818689631134  0.
-0.5585660372011136 -1.3815347963586364  0.
-0.9357892371729141 -1.430968718436685  0.
1.0597888807796738 -1.8363829928159354  0.
0.63296466724745 -1.7880986565939432  0.
0.21050353387965892 -1.7639567511825112  0.
-0.2105035338797072 -1.7639567511825127  0.
-0.6329646672474982 -1.7880986565939476  0.
-1.059788880779722 -1.8363829928159432  0.
1.180870247268353 -2.2908133481625366  0.
0.7056132569931929 -2.2436785657157143  0.
0.23471962436545615 -2.220111228411502  0.
-0.2347196243655105 -2.220111228411503  0.
-0.7056132569932473 -2.2436785657157188  0.
-1.1808702472684072 -2.290813348162544  0.
1.2990338684998586 -2.793092580033439  0.
0.7765114053188439 -2.7471074082694553  0.
0.25835231852248 -2.724114827806466  0.
-0.2583523185225404 -2.724114827806468  0.
-0.7765114053189043 -2.74710740826946  0.
-1.299033868499919 -2.7930925800334467  0.
1.4142798566509522 -3.342053701609594  0.
0.8456590006528797 -3.2972181557010045  0.
0.2814015146411398 -3.274800382162302  0.
-0.28140151464120644 -3.2748003821623035  0.
-0.8456590006529464 -3.297218155701009  0.
-1.4142798566510189 -3.342053701609601  0.
1.526608226334841 -3.9365296890029655  0.
0.9130560244296339 -3.8928437722500777  0.
0.30386718944468644 -3.8710008134094958  0.
-0.3038671894447588 -3.8710008134094966  0.
-0.9130560244297066 -3.8928437722500813  0.
-1.5266082263349134 -3.936529689002972  0.
1.6360189771057128 -4.57535350009901  0.
0.9787024754465339 -4.5328172128040425  0.
0.3257493399675557 -4.511549069027848  0.
-0.3257493399676328 -4.511549069027849  0.
-0.9787024754466128 -4.532817212804043  0.
-1.6360189771057922 -4.575353500099016  0.
1.7425121081561752 -5.257358087686424  0.
1.0425983541734398 -5.215971429813901  0.
0.34704796626205625 -5.195278100855295  0.
-0.3470479662621366 -5.195278100855295  0.
-1.0425983541735249 -5.2159714298139015  0.
-1.742512108156264 -5.257358087686428  0.
1.8460876192291111 -5.981376403761099  0.
1.1047436608241863 -5.94113937528267  0.
0.36776306848820445 -5.9210208610419  0.
-0.36776306848828555 -5.9210208610418995  0.
-1.1047436608242773 -5.94113937528267  0.
-1.8460876192292137 -5.981376403761105  0.
1.9467455102753084 -6.746241400274759  0.
1.1651383954497738 -6.707154001182757  0.
0.3878946466974285 -6.687610301637265  0.
-0.3878946466975099 -6.687610301637267  0.
-1.1651383954498706 -6.707154001182764  0.
-1.946745510275432 -6.746241400274775  0.
2.044485781289966 -7.550786029202838  0.
1.223782558057523 -7.512848259495936  0.
0.4074427008998144 -7.49387937464274  0.
-0.40744270089990525 -7.493879374642757  0.
-1.2237825580576254 -7.512848259495978  0.
-2.0444857812901165 -7.550786029202891  0.
2.1393084322737668 -8.393843242530638  0.
1.280676148647548 -8.357055102208747  0.
0.4264072310963666 -8.338661032047899  0.
-0.4264072310965083 -8.338661032047959  0.
-1.2806761486476546 -8.357055102208886  0.
-2.1393084322739315 -8.39384324253079  0.
2.2312134632271987 -9.274245992245746  0.
1.3358191672195463 -9.238607481308891  0.
0.4447882372869246 -9.22078822584057  0.
-0.4447882372872344 -9.220788225840725  0.
-1.3358191672196549 -9.238607481309241  0.
-2.231213463227292 -9.274245992246096  0.
2.320200874150478 -10.190827230336078  0.
1.3892116137734094 -10.156338348784244  0.
0.46258571947132926 -10.13909390800854  0.
-0.46258571947206445 -10.139093908008855  0.
-1.389211613773518 -10.156338348784947  0.
-2.320200874150225 -10.190827230336708  0.
2.4062706650438255 -11.142419908789671  0.
1.440853488309113 -11.109080656622794  0.
0.47979967764946674 -11.09241103053971  0.
-0.47979967765106285 -11.092411030540175  0.
-1.4408534883092228 -11.109080656623828  0.
-2.4062706650425536 -11.142419908790426  0.
2.489422835907544 -12.127856979594892  0.
1.4907447908266476 -12.095667356812845  0.
0.49643011182134333 -12.079572545422149  0.
-0.49643011182421515 -12.079572545422394  0.
-1.4907447908267741 -12.095667356813376  0.
-2.4894228359039765 -12.127856979594682  0.
2.569657386741829 -13.145971394740865  0.
1.538885521325992 -13.114931401343483  0.
0.5124770219874544 -13.099411404644274  0.
-0.5124770219910251 -13.09941140464287  0.
-1.538885521326193 -13.114931401340275  0.
-2.569657386734296 -13.145971394736126  0.
2.6469743175459044 -14.195596106218069  0.
1.5852756798070995 -14.16570574220535  0.
0.5279404081497485 -14.150760560195206  0.
-0.5279404081495447 -14.15076056018827  0.
-1.5852756798075271 -14.165705742189681  0.
-2.6469743175342897 -14.195596106200073  0.
2.721373628315627 -15.275564066018397  0.
1.6299152662698906 -15.246823331391177  0.
0.5428202703135118 -15.232452964065006  0.
-0.5428202702944889 -15.232452964044331  0.
-1.6299152662708567 -15.246823331344658  0.
-2.721373628308101 -15.275564065970423  0.
2.792855319038315 -16.38470822613247  0.
1.6728042807142864 -16.357117120894134  0.
0.5571166084899544 -16.34332156824395  0.
-0.5571166084146464 -16.343321568196544  0.
-1.6728042807162606 -16.35711712078779  0.
-2.7928553190684102 -16.384708226032327  0.
2.861419389684322 -17.521861538538545  0.
1.7139427231403832 -17.49542006269842  0.
0.5708294226968949 -17.482199324718387  0.
-0.5708294224921989 -17.482199324634365  0.
-1.7139427231436426 -17.495420062510707  0.
-2.8614193898448663 -17.521861538383327  0.
2.9270658401998135 -18.685856955171438  0.
1.7533305935489736 -18.660565108749577  0.
0.5839587129481031 -18.647919185457525  0.
-0.5839587125133765 -18.64791918536436  0.
-1.7533305935522092 -18.660565108543615  0.
-2.9270658406913044 -18.685856955064377  0.
2.9897946705213228 -19.875527427855175  0.
1.790967891942763 -19.851385210884075  0.
0.5965044792068289 -19.839314102382083  0.
-0.5965044785149296 -19.83931410244159  0.
-1.790967891939257 -19.85138521102585  0.
-2.989794671671189 -19.875527428227254  0.
3.0496058806717827 -21.089705908191917  0.
1.8268546183285381 -21.066713320698785  0.
0.6084667212536887 -21.0552170273059  0.
-0.6084667207162423 -21.055217028028018  0.
-1.8268546182979983 -21.066713322336327  0.
-3.049605882761591 -21.089705910245574  0.
3.106499471072148 -22.327225347463507  0.
1.8609907727196517 -22.305382389389724  0.
0.6198454383948493 -22.294460911863226  0.
-0.6198454398111486 -22.294460914465176  0.
-1.8609907726150812 -22.305382395254817  0.
-3.106499473541555 -22.327225353813297  0.
3.16047544330009 -23.58691869680935  0.
1.8933763551347849 -23.566225367777836  0.
0.630640628969968 -23.555878707517806  0.
-0.6306406374600072 -23.555878714265074  0.
-1.893376354871838 -23.566225382936157  0.
-3.1604754424334023 -23.586918711766803  0.
3.211533801534187 -24.867618908453146  0.
1.9240113655801043 -24.848075207247813  0.
0.6408522898799098 -24.838303365976124  0.
-0.6408523167620164 -24.838303379696953  0.
-1.9240113650621704 -24.848075237971464  0.
-3.211533785258481 -24.867618935858218  0.
3.259674554446252 -26.168158939725362  0.
1.9528958039837707 -26.149764863397543  0.
0.6504804172307885 -26.140567840805318  0.
-0.6504804816112197 -26.14056786116932  0.
-1.9528958032581674 -26.149764908738597  0.
-3.2596744933446615 -26.16815897273279  0.
3.30489771535095 -27.487371762922336  0.
1.980029670024221 -27.470127305885224  0.
0.6595250113739531 -27.46150509181452  0.
-0.659525131656035 -27.461505102849394  0.
-1.9800296697817243 -27.470127329554398  0.
-3.30489755337646 -27.48737175406861  0.
3.347203293014315 -28.824090384214106  0.
2.0054129627759276 -28.807995539218165  0.
0.6679860938812738 -28.799948094337395  0.
-0.6679862453195117 -28.799948033386496  0.
-2.005412965555463 -28.8079953998834  0.
-3.347202956588826 -28.824090177663575  0.
3.3865912538420835 -30.17714786879703  0.
2.029045680166811 -30.16220263555699  0.
0.6758637498586811 -30.15472985395687  0.
-0.6758637374638007 -30.154729551213464  0.
-2.0290456926231024 -30.16220195152738  0.
-3.3865907366005548 -30.17714708226793  0.
3.42306141711643 -31.545377344420817  0.
2.050927818613104 -31.531581759283963  0.
0.6831582105880066 -31.524683417809598  0.
-0.6831573766827105 -31.524682513307344  0.
-2.0509278544244607 -31.531579724066102  0.
-3.4230610742877925 -31.545375244066452  0.
3.456613228490949 -32.92761188538636  0.
2.071059374406782 -32.91496609636477  0.
0.6898699675833988 -32.90864184368179  0.
-0.6898666712453521 -32.90863976600106  0.
-2.0710594542243097 -32.91496143570566  0.
-3.4566145246196474 -32.92760749304312  0.
3.4872453895453894 -34.322684028080076  0.
2.0894403515495035 -34.31118844219779  0.
0.6959998049515991 -34.30543801692612  0.
-0.6959908380936137 -34.30543432603429  0.
-2.0894404878968147 -34.311180196677874  0.
-3.4872523871938164 -34.322677200033645  0.
3.514955533061315 -35.729424416437105  0.
2.106070789023536 -35.71907990976443  0.
0.7015483415611495 -35.71390406669041  0.
-0.7015292709013576 -35.713899951239604  0.
-2.106070924933408 -35.719070806316196  0.
-3.5149770242022655 -35.72941964133019  0.
3.539740830567255 -37.146658868178164  0.
2.120950836676053 -37.13746683929623  0.
0.7065140238792554 -37.1328699742624  0.
-0.7064835901271929 -37.13287248231055  0.
-2.1209506808498353 -37.137472850125015  0.
-3.5397912040289805 -37.14667495748178  0.
3.5616020428831168 -38.573203405120196  0.
2.134080938905525 -38.56516508960538  0.
0.7108873982209867 -38.56116091915144  0.
-0.7108634809953505 -38.561192400725176  0.
-2.134079599429156 -38.565236377751276  0.
-3.5616938229584028 -38.57329303849927  0.
3.5805570242600537 -40.0078597282039  0.
2.1454620206741297 -40.00097243909489  0.
0.7146382142866813 -39.997594535968254  0.
-0.7146993451229191 -39.99770803730041  0.
-2.1454575026813414 -40.00122890183876  0.
-3.5806659071843336 -40.00813725876341  0.
3.5966735966418613 -41.44941835843635  0.
2.155094399772312 -41.443669544566674  0.
0.7176921408362184 -41.440982530942016  0.
-0.7180622993220972 -41.44127874295809  0.
-2.1550830139765655 -41.444332361313975  0.
-3.5966381774037863 -41.45007480286402  0.
3.610146334643529 -42.89671224182374  0.
2.1629663563652577 -42.89204900603471  0.
0.7198979667065752 -42.89016989948138  0.
-0.7210717587733702 -42.89076540390971  0.
-2.1629466016338657 -42.893400013339395  0.
-3.609434030827283 -42.897910773024215  0.
3.6214120344863496 -44.34871852594949  0.
2.168997430391208 -44.34511513663217  0.
0.7210218963600025 -44.3441180980424  0.
-0.7238314427399892 -44.345027707869534  0.
-2.1689803138337234 -44.34708185179041  0.
-3.618745757163805 -44.35020570288079  0.
3.6315371611517793 -45.80545653972213  0.
2.1728572897584164 -45.802342097506106  0.
0.7208524459224881 -45.80237727948863  0.
-0.7260253543979278 -45.802645751590475  0.
-2.1730150794540326 -45.80345387278782  0.
-3.624294406007178 -45.80498463384017  0.
3.6414956443690465 -47.267544003612  0.
2.1734557652537836 -47.26685662829473  0.
0.7209187716758948 -47.26396362723507  0.
-0.7267170157690107 -47.26103102825052  0.
-2.1748631224804984 -47.259679379089675  0.
-3.6263957786113985 -47.25967683709584  0.
3.653937585974766 -48.76548617188734  0.
2.178165883349343 -48.737606580597536  0.
0.723984194920336 -48.722354199825396  0.
-0.7254362461864735 -48.71507324778875  0.
-2.174979709345617 -48.712672622661174  0.
-3.6266828314510517 -48.71237453322107  0.
</DataArray>
<DataArray type="Float64" Name="Nodal_sigma_xx" NumberOfComponents="1" format="ascii" >
0.0660004672157252 
0.04835000662702902 
0.015349773019165599 
-0.015349773019168901 
-0.04835000662703254 
-0.06600046721572891 
0.0644400409378535 
0.04822550120112161 
0.016005480732194002 
-0.016005480732197427 
-0.04822550120112508 
-0.06444004093785702 
0.06246421759431636 
0.047453482079524476 
0.016221373282365403 
-0.01622137328236896 
-0.04745348207952792 
-0.06246421759431969 
0.061453183493739696 
0.04625672762605195 
0.015530135879181197 
-0.015530135879184764 
-0.04625672762605539 
-0.06145318349374306 
0.06022147718493507 
0.045201886300221525 
0.015091147707753095 
-0.015091147707756622 
-0.04520188630022498 
-0.060221477184938504 
0.05893291348010862 
0.0442031921146967 
0.014736735374641508 
-0.014736735374645017 
-0.04420319211470016 
-0.05893291348011205 
0.05762569670369805 
0.04321893888118088 
0.014406090529330983 
-0.014406090529334479 
-0.04321893888118435 
-0.05762569670370148 
0.05631604282611885 
0.04223673790028034 
0.01407871648722005 
-0.014078716487223523 
-0.04223673790028381 
-0.056316042826122306 
0.05500624160354165 
0.04125459959114507 
0.013751478789373396 
-0.013751478789376837 
-0.04125459959114849 
-0.055006241603545 
0.05369652870137192 
0.040272382171780696 
0.013424117821093888 
-0.013424117821097311 
-0.04027238217178409 
-0.05369652870137526 
0.05238684896528537 
0.03929013570734462 
0.013096711224701069 
-0.013096711224704502 
-0.039290135707348114 
-0.05238684896528895 
0.051077176869590596 
0.0383078829693466 
0.012769294534550453 
-0.012769294534553853 
-0.03830788296935006 
-0.05107717686959411 
0.049767505750320254 
0.03732562946899951 
0.012441876593838637 
-0.012441876593841893 
-0.03732562946900288 
-0.04976750575032346 
0.04845783461620394 
0.03634337600032429 
0.01211445869222173 
-0.012114458692224644 
-0.03634337600032794 
-0.04845783461620778 
0.04714816343006886 
0.03536112257825632 
0.0117870408632215 
-0.011787040863223687 
-0.035361122578260365 
-0.04714816343007413 
0.04583849222714126 
0.03437886917051205 
0.011459623056941337 
-0.011459623056942364 
-0.0343788691705163 
-0.045838492227148045 
0.044528821020905524 
0.03339661576546721 
0.011132205255014592 
-0.01113220525501468 
-0.03339661576547154 
-0.044528821020913434 
0.0432191498143345 
0.03241436236067167 
0.010804787453503372 
-0.010804787453505986 
-0.03241436236067476 
-0.04321914981433964 
0.04190947860781042 
0.03143210895583725 
0.010477369651925231 
-0.010477369651942531 
-0.031432108955834225 
-0.04190947860779701 
0.04059980740133533 
0.03044985555098253 
0.010149951850291146 
-0.010149951850354492 
-0.03044985555096257 
-0.04059980740126359 
0.03929013619491034 
0.029467602146131738 
0.009822534048614323 
-0.00982253404878767 
-0.0294676021460738 
-0.039290136194696755 
0.03798046498855159 
0.028485348741294707 
0.009495116246888985 
-0.009495116247265756 
-0.028485348741168877 
-0.03798046498806608 
0.03667079378223546 
0.02750309533646057 
0.009167698445139573 
-0.009167698445767695 
-0.027503095336260767 
-0.03667079378139268 
0.03536112257575737 
0.026520841931562098 
0.008840280643535097 
-0.008840280644124827 
-0.026520841931417405 
-0.035361122574881804 
0.03405145136840538 
0.025538588526390734 
0.00851286284264063 
-0.008512862841771985 
-0.025538588526847254 
-0.03405145136924537 
0.032741780158369135 
0.024556335120451092 
0.008185445043856768 
-0.008185445037308715 
-0.024556335123045385 
-0.03274178016629285 
0.03143210894204147 
0.02357408171282844 
0.007858027249901752 
-0.00785802722801661 
-0.023574081720926357 
-0.031432108969631396 
0.030122437714257214 
0.02259182830240163 
0.00753060946448015 
-0.007530609410191107 
-0.022591828321612207 
-0.030122437784427948 
0.028812766472869414 
0.021609574889385162 
0.007203191688450086 
-0.007203191582974461 
-0.021609574924888044 
-0.0288127666128279 
0.027503095235972073 
0.02062732148045103 
0.006875773906091933 
-0.00687577376208562 
-0.020627321524081213 
-0.0275030954367373 
0.02619342408759648 
0.019645068101375486 
0.006548356049614044 
-0.006548356015315816 
-0.019645068093415475 
-0.02619342417212572 
0.024883753272700794 
0.018662814821492478 
0.006220937927204312 
-0.006220938534479229 
-0.018662814563558228 
-0.02488375257403355 
0.02357408334342216 
0.01768056178676945 
0.005893519116830685 
-0.005893521741613688 
-0.017680560788545303 
-0.023574080090318604 
0.022264415256703605 
0.016698309226512144 
0.005566098910730079 
-0.005566106344503499 
-0.016698306539084645 
-0.022264405764022825 
0.020954750010620884 
0.015716057309145513 
0.005238676641467913 
-0.005238693010627151 
-0.015716051646781 
-0.020954728597042012 
0.019645086673488587 
0.014733805526292007 
0.004911253283174933 
-0.004911280765699528 
-0.014733796619921679 
-0.019645049521189863 
0.01833541632458353 
0.01375155095690992 
0.0045838362159686735 
-0.004583862227522669 
-0.01375154437826269 
-0.018335377458779 
0.017025707838643475 
0.012769284460446317 
0.004256450135604264 
-0.004256412688528468 
-0.01276930405492854 
-0.01702574354384078 
0.01571588197115746 
0.011786984319534576 
0.00392915635508433 
-0.0039288707940468 
-0.011787097340665617 
-0.015716227050980663 
0.014405780463352464 
0.010804610362983896 
0.0036020741407294613 
-0.0036011172289640596 
-0.010804964372407464 
-0.014406986268043213 
0.013095175694922754 
0.009822113234348584 
0.00327536697710611 
-0.00327298903534188 
-0.009822954824569187 
-0.013098248398016807 
0.011783968167647563 
0.008839503086290444 
0.0029490775334108685 
-0.0029444485040121594 
-0.008841061617236395 
-0.01179010916456006 
0.010472935542236203 
0.007857077152540316 
0.002622535151472027 
-0.0026161905672586793 
-0.007859002922591729 
-0.010481773170566477 
0.009165712040053123 
0.006875988878708361 
0.002292816718147519 
-0.0022912127239864653 
-0.006875672738174885 
-0.009169552309445397 
0.00787306399001507 
0.005899254452360132 
0.001951529820956479 
-0.001977899701069089 
-0.005888061815964697 
-0.007842709502583454 
0.006619541270357906 
0.004932904321562548 
0.00157945677449421 
-0.0016940140027311944 
-0.004889227409673453 
-0.0064777806376632874 
0.0054527369521229045 
0.00398272893045661 
0.0011397865161357527 
-0.001464444518113232 
-0.0038661549921971423 
-0.005036568824686631 
0.004426666420512371 
0.003042596516103626 
0.0005813153219734859 
-0.0012946299157163958 
-0.002794648532230295 
-0.0034959332007757074 
0.003585697364922163 
0.0020219367303007225 
-0.0001154528497896149 
-0.0010507594488408307 
-0.001677395832671489 
-0.0019423545629198287 
0.00217916396810065 
0.0009132182670181563 
-0.0004191571958655179 
-0.0005661037216493362 
-0.0006704247881842864 
-0.0006942290907365986 
0.001141519802920597 
0.00035559976581928446 
-0.0003419078808084549 
-0.00025341959791768895 
-0.00022885202065092526 
-0.00020436033580135423 
</DataArray>
<DataArray type="Float64" Name="Nodal_sigma_yy" NumberOfComponents="1" format="ascii" >
0.015990215086281765 
0.012327894292641061 
0.00433278674949989 
-0.004332786749501016 
-0.012327894292642121 
-0.01599021508628279 
0.007555191253327279 
0.0063654469812869175 
0.0025878513546230704 
-0.002587851354623861 
-0.0063654469812875585 
-0.007555191253327809 
-0.00044267854448198224 
8.292498801448127e-05 
0.000304264260255391 
-0.0003042642602556713 
-8.292498801461788e-05 
0.0004426785444819441 
-5.559988649516713e-05 
-0.00018357510733236376 
-0.0001557751640848022 
0.00015577516408474712 
0.0001835751073323527 
5.559988649516713e-05 
-6.0421076121744063e-05 
-7.956973536286114e-05 
-4.9359197301991815e-05 
4.935919730200439e-05 
7.956973536288694e-05 
6.0421076121759676e-05 
-9.124653702277316e-06 
-1.6789760468545033e-05 
-1.2227433617410983e-05 
1.2227433617398949e-05 
1.6789760468589052e-05 
9.124653702370991e-06 
-1.5093541167205543e-06 
-2.2559427327595305e-06 
-1.5012656743981691e-06 
1.501265674375401e-06 
2.2559427327814314e-06 
1.5093541168142294e-06 
8.637887638843211e-08 
4.985757997991516e-08 
6.668141797029018e-09 
-6.668141800823726e-09 
-4.9857580006369695e-08 
-8.637887638843211e-08 
7.554560414475137e-08 
1.1701446448429687e-07 
7.924166242829263e-08 
-7.924166241853482e-08 
-1.1701446445827601e-07 
-7.554560404673949e-08 
2.5066860732947394e-08 
3.809902411676218e-08 
2.5565593751047423e-08 
-2.5565593755384232e-08 
-3.8099024039350143e-08 
-2.506686056641394e-08 
4.517384476036834e-09 
7.388269012212345e-09 
5.129576769802909e-09 
-5.129576732614775e-09 
-7.388269085070731e-09 
-4.5173847136939504e-09 
4.335169497687863e-10 
7.468937753430521e-10 
5.301352907550495e-10 
-5.301353292442267e-10 
-7.468939431775484e-10 
-4.3351724727386243e-10 
-7.27762789268227e-11 
-9.274289539465408e-11 
-5.635477940421976e-11 
5.635440763129482e-11 
9.274283988350285e-11 
7.277681755846199e-11 
-4.361614108078227e-11 
-6.608731227195075e-11 
-4.427931318048278e-11 
4.42785646473029e-11 
6.608691436975345e-11 
4.3616556547054763e-11 
-1.161294064383478e-11 
-1.817099921051779e-11 
-1.2364752180037825e-11 
1.2363736607862857e-11 
1.81701626401215e-11 
1.161240548164244e-11 
-1.886055547850596e-12 
-3.0873361592936854e-12 
-2.1443178721373968e-12 
2.1443730580279763e-12 
3.08720475399038e-12 
1.8856444183867893e-12 
-1.0252909632413321e-13 
-2.0113815127342782e-13 
-1.481832777143477e-13 
1.5380887752672323e-13 
2.038029033729627e-13 
1.0336870248650598e-13 
5.553283527470754e-14 
8.078563859537091e-14 
5.948122853635662e-14 
-3.765894930965463e-14 
-6.991456025229326e-14 
-5.158720672859829e-14 
2.921187597371144e-14 
5.058930704904263e-14 
5.331141344350199e-14 
5.8803873229096304e-15 
-1.9822902000421472e-14 
-1.675048988403205e-14 
1.9049865851439307e-14 
4.157373230395667e-14 
6.839605379456437e-14 
5.676408236683639e-14 
2.444832530867913e-14 
8.0629947163402e-15 
2.3847243624253167e-14 
5.492611573898465e-14 
9.98070983498911e-14 
9.79446558579955e-14 
5.185413730346422e-14 
2.142817173700351e-14 
2.351504407860361e-14 
4.65827463408397e-14 
7.53025571585686e-14 
7.507986203234007e-14 
4.62906622755721e-14 
2.3376266200525464e-14 
-2.360611706109239e-14 
-8.959174548073268e-14 
-2.0930333204452478e-13 
-2.09398524995269e-13 
-8.927190583984945e-14 
-2.277605187783749e-14 
-2.1465815236432206e-13 
-6.023846785968567e-13 
-1.2341679598865812e-12 
-1.2341950649408934e-12 
-6.02026241358633e-13 
-2.1388706777925037e-13 
-7.426958353873303e-13 
-1.9627416011913645e-12 
-3.889873097023475e-12 
-3.889601829639919e-12 
-1.9624985230642933e-12 
-7.427522139002996e-13 
-1.884159495091353e-12 
-4.791293880743175e-12 
-9.285157007415251e-12 
-9.284801497522893e-12 
-4.790798725611001e-12 
-1.883880204611721e-12 
-3.7487027371163606e-12 
-9.14793273684017e-12 
-1.7280305902563423e-11 
-1.7279930009670222e-11 
-9.146786626723635e-12 
-3.747162302669693e-12 
-5.350961861105841e-12 
-1.206132069220267e-11 
-2.1571286992977737e-11 
-2.1571088909240824e-11 
-1.2061005948311998e-11 
-5.350728540798322e-12 
-2.161277233569958e-12 
-1.2525490627329772e-12 
2.5246281844595875e-12 
2.524083156027479e-12 
-1.2533469271117093e-12 
-2.1617829054632054e-12 
1.898632986940818e-11 
5.738720555616833e-11 
1.2184249800501618e-10 
1.2184197086591991e-10 
5.738645290302019e-11 
1.8985878841304427e-11 
8.770363992341434e-11 
2.3774629400591385e-10 
4.779373150227192e-10 
4.779383957554447e-10 
2.3774674026352804e-10 
8.770237097319167e-11 
2.551482870469246e-10 
6.610037508666955e-10 
1.2952648688314104e-09 
1.2952692491166075e-09 
6.610086235965193e-10 
2.551492719361781e-10 
5.741900505409903e-10 
1.4329914738544017e-09 
2.745559837694176e-09 
2.7455759560941935e-09 
1.4330154806925857e-09 
5.742058274173234e-10 
9.930625007210925e-10 
2.352894424326006e-09 
4.358938696455298e-09 
4.358985593728689e-09 
2.352967078123047e-09 
9.931140137683925e-10 
1.0295155526696131e-09 
2.0636583293988722e-09 
3.3528720326937538e-09 
3.3528751106353012e-09 
2.0636762791247792e-09 
1.0295452962383322e-09 
-9.917563402461749e-10 
-3.8635226038384596e-09 
-9.053121468059538e-09 
-9.054118747792292e-09 
-3.864939044587873e-09 
-9.925946622794946e-10 
-9.324171944529586e-09 
-2.6249971841270543e-08 
-5.3837930749588126e-08 
-5.384525885450788e-08 
-2.626066613199262e-08 
-9.330904316134231e-09 
-3.243881572991686e-08 
-8.577693398246437e-08 
-1.7008915070093427e-07 
-1.7012122645661428e-07 
-8.582441732632711e-08 
-3.2469630906282326e-08 
-8.244840775384343e-08 
-2.0978858071910023e-07 
-4.0673553266919117e-07 
-4.0681157570434117e-07 
-2.0990561857008212e-07 
-8.253039738550724e-08 
-1.6450165507032877e-07 
-4.0156557172663e-07 
-7.587126646837312e-07 
-7.585829787686753e-07 
-4.0139758519661594e-07 
-1.6442505384041232e-07 
-2.3658383290479403e-07 
-5.334545989782425e-07 
-9.527659292956145e-07 
-9.501633247586207e-07 
-5.297405384515046e-07 
-2.3436092092530593e-07 
-1.064806587169724e-07 
-7.561510678759592e-08 
8.499830198694215e-08 
1.0097711878150539e-07 
-5.202482406826232e-08 
-9.125772686743167e-08 
7.983566026250211e-07 
2.448872813095996e-06 
5.269433236135172e-06 
5.331424035824683e-06 
2.5401248123034905e-06 
8.568790016609887e-07 
3.745243863956249e-06 
1.030230985046512e-05 
2.0826757726383442e-05 
2.0925450276717713e-05 
1.0467957149789067e-05 
3.879153361935599e-06 
1.1529946026313416e-05 
2.9333585728361333e-05 
5.6961125080490804e-05 
5.642028476146017e-05 
2.853322505851698e-05 
1.1010905324685977e-05 
2.7266955321262492e-05 
6.744737831578448e-05 
0.00012358111579573408 
0.00011699700788797549 
5.839691306237037e-05 
2.233424062995145e-05 
6.550544569095711e-05 
0.00012957128514673477 
0.00020751053541311667 
0.00017463645017470425 
7.821136299221353e-05 
2.853377185873954e-05 
7.833779822852879e-05 
0.00017842213168132139 
0.00020532369761652755 
8.015413064639215e-05 
1.5086798197172432e-05 
2.006265200501622e-06 
0.00029043478861483436 
-9.852728099364193e-06 
-0.0004289976384853073 
-0.0004591348440515345 
-0.00022989676659433797 
-8.937887724265879e-05 
-0.0034672460463993663 
-0.0032936119045981153 
-0.0025827887095364634 
-0.0014833413008315684 
-0.0005454077586620595 
-0.0001697325719370453 
-0.007452282134739573 
-0.0063774781928420616 
-0.004146481848851176 
-0.0020838896029940083 
-0.0006812438190542468 
-0.00018499787887827864 
</DataArray>
<DataArray type="Float64" Name="Nodal_sigma_xy" NumberOfComponents="1" format="ascii" >
-0.005425541056215812 
-0.0024175038729459244 
0.0016302744010499198 
0.001630274401049759 
-0.0024175038729464075 
-0.005425541056216457 
-0.002754031383946276 
-0.0018052631191692097 
-0.0003177211888617564 
-0.0003177211888618726 
-0.0018052631191694994 
-0.0027540313839466224 
-0.0002256947599470103 
-0.0011406250368378198 
-0.002246527583193039 
-0.0022465275831930697 
-0.0011406250368378508 
-0.00022569475994701084 
-0.000504120059777547 
-0.001142309218990091 
-0.002105630751125554 
-0.0021056307511255405 
-0.0011423092189900602 
-0.0005041200597775117 
-0.0006837285671528261 
-0.0012122510524522258 
-0.001945884663975766 
-0.0019458846639757584 
-0.0012122510524522092 
-0.0006837285671528076 
-0.0007361023034310227 
-0.0012318257836999773 
-0.0019001230645889471 
-0.0019001230645889363 
-0.0012318257836999547 
-0.0007361023034309986 
-0.0007448758494157102 
-0.001235963901432229 
-0.0018915981738643448 
-0.0018915981738643311 
-0.0012359639014321978 
-0.0007448758494156749 
-0.0007455002201821903 
-0.0012363749370375063 
-0.0018908749528758055 
-0.0018908749528757937 
-0.0012363749370374899 
-0.0007455002201821809 
-0.0007452904967825773 
-0.0012363362307669184 
-0.0018910185208461778 
-0.0018910185208461695 
-0.001236336230766928 
-0.0007452904967826125 
-0.0007451918058955199 
-0.0012363022676056194 
-0.0018911018294508431 
-0.0018911018294508575 
-0.0012363022676056704 
-0.000745191805895593 
-0.0007451678006148567 
-0.0012362928172220153 
-0.0018911232824748625 
-0.0018911232824748677 
-0.0012362928172220127 
-0.0007451678006148411 
-0.0007451642795010781 
-0.0012362911571110254 
-0.0018911267031429476 
-0.0018911267031428928 
-0.0012362911571109133 
-0.0007451642795009634 
-0.0007451641975935554 
-0.0012362910393036743 
-0.0018911268619041595 
-0.0018911268619039923 
-0.0012362910393033796 
-0.0007451641975932998 
-0.0007451643346325206 
-0.0012362910760411708 
-0.001891126756647342 
-0.00189112675664705 
-0.0012362910760405838 
-0.0007451643346319311 
-0.0007451643849220707 
-0.0012362910941281099 
-0.0018911267134160453 
-0.001891126713415508 
-0.0012362910941270508 
-0.0007451643849210272 
-0.0007451643956330307 
-0.0012362910985480235 
-0.001891126703641069 
-0.001891126703640396 
-0.0012362910985465733 
-0.0007451643956314761 
-0.0007451643969251258 
-0.0012362910992078967 
-0.0018911267023339062 