<?xml version="1.0"?>
<VTKFile type="UnstructuredGrid" version="0.1" byte_order="LittleEndian" compressor="vtkZLibDataCompressor">
<UnstructuredGrid>
<Piece NumberOfPoints="306" NumberOfCells="250">
<PointData>
<DataArray type="Float64" Name="displacement" NumberOfComponents="3" format="ascii" >
0.0 0.0  0.
0.0 0.0  0.
0.0 0.0  0.
0.0 0.0  0.
0.0 0.0  0.
0.0 0.0  0.
0.1557711912360005 -0.10401291163044105  0.
0.08100554446484705 -0.0367273143842916  0.
0.026665519608505113 -0.010431825418509927  0.
-0.026665519608509953 -0.010431825418510756  0.
-0.08100554446485203 -0.03672731438429431  0.
-0.15577119123600697 -0.10401291163044665  0.
0.31329764582176955 -0.2054381729899576  0.
0.1813907842457281 -0.14297802538595808  0.
0.058639861165269425 -0.10928290226599681  0.
-0.05863986116528007 -0.10928290226599817  0.
-0.18139078424573923 -0.14297802538596233  0.
-0.31329764582178166 -0.20543817298996464  0.
0.4696553780875186 -0.3693573847361497  0.
0.27780621166100977 -0.30730027419023703  0.
0.09174049397741064 -0.2757575595432961  0.
-0.09174049397742758 -0.2757575595432977  0.
-0.2778062116610271 -0.3073002741902417  0.
-0.4696553780875364 -0.36935738473615726  0.
0.624362851318143 -0.5949511634329743  0.
0.37122006653404965 -0.5344732140098811  0.
0.12311501410355766 -0.5040768450781042  0.
-0.12311501410358093 -0.5040768450781058  0.
-0.3712200665340731 -0.5344732140098858  0.
-0.6243628513181665 -0.5949511634329819  0.
0.7760365729991077 -0.88214467507778  0.
0.46230389336475797 -0.8230086782308058  0.
0.15354014665674315 -0.7934243371934387  0.
-0.15354014665677265 -0.7934243371934402  0.
-0.4623038933647876 -0.8230086782308104  0.
-0.7760365729991373 -0.8821446750777875  0.
0.924422905247475 -1.2294164832584606  0.
0.5513348607202093 -1.1716060907838917  0.
0.18322461329719897 -1.142700759673343  0.
-0.1832246132972347 -1.1427007596733445  0.
-0.5513348607202452 -1.171606090783896  0.
-0.9244229052475108 -1.2294164832584684  0.
1.069473413911792 -1.6353928210703812  0.
0.638361185372618 -1.5788969101240458  0.
0.21223350472781352 -1.550649931006905  0.
-0.21223350472785546 -1.5506499310069066  0.
-0.6383611853726598 -1.5788969101240504  0.
-1.0694734139118338 -1.6353928210703885  0.
1.2111872923195588 -2.098723420360933  0.
0.7233881911399037 -2.0435413218215155  0.
0.2405754672910281 -2.0159505727798805  0.
-0.24057546729107623 -2.015950572779882  0.
-0.7233881911399518 -2.04354132182152  0.
-1.2111872923196068 -2.0987234203609404  0.
1.349565996878043 -2.618072397899874  0.
0.8064151508493205 -2.5642040751035085  0.
0.2682509992747954 -2.5372699753272667  0.
-0.2682509992748497 -2.537269975327268  0.
-0.8064151508493747 -2.564204075103513  0.
-1.349565996878097 -2.6180723978998817  0.
1.4846101354283292 -3.1921058057523006  0.
0.8874416060786326 -3.1395513237363217  0.
0.29525979259710755 -3.113274088921478  0.
-0.295259792597168 -3.113274088921479  0.
-0.8874416060786929 -3.1395513237363257  0.
-1.4846101354283894 -3.1921058057523086  0.
1.6163198361724311 -3.819489944696441  0.
0.9664674293175277 -3.7682493208009125  0.
0.3216017310184325 -3.7426290081852533  0.
-0.321601731018499 -3.7426290081852542  0.
-0.9664674293175943 -3.768249320800917  0.
-1.6163198361724973 -3.819489944696448  0.
1.744695115811156 -4.498891073145971  0.
1.0434925993481012 -4.448964311142672  0.
0.34727678793677097 -4.424000929610578  0.
-0.3472767879368431 -4.424000929610579  0.
-1.0434925993481738 -4.448964311142674  0.
-1.7446951158112287 -4.498891073145977  0.
1.8697359738350052 -5.228975428684267  0.
1.1185171147959847 -5.18036252891859  0.
0.3722849599629066 -5.156056078888655  0.
-0.37228495996298344 -5.156056078888655  0.
-1.1185171147960635 -5.180362528918592  0.
-1.8697359738350854 -5.228975428684272  0.
1.9914424093212444 -6.008409243069841  0.
1.1915409761981608 -5.961110205501243  0.
0.39662624715662126 -5.937460686691409  0.
-0.3966262471567007 -5.937460686691408  0.
-1.1915409761982456 -5.961110205501243  0.
-1.9914424093213339 -6.008409243069845  0.
2.1098144219760253 -6.83585874715514  0.
1.262564183799012 -6.789873571751222  0.
0.4203006497007903 -6.766880984047486  0.
-0.4203006497008698 -6.766880984047485  0.
-1.2625641837991033 -6.7898735717512215  0.
-2.1098144219761292 -6.835858747155145  0.
2.224852011743105 -7.709990171742134  0.
1.331586737656825 -7.665318858494133  0.
0.4433081676541889 -7.642983201870714  0.
-0.4433081676542679 -7.642983201870717  0.
-1.331586737656922 -7.665318858494141  0.
-2.2248520117432324 -7.7099901717421515  0.
2.336555178616997 -8.629469747659892  0.
1.3986086377799654 -8.586112296566291  0.
0.4656488010283441 -8.564433571019782  0.
-0.46564880102843326 -8.564433571019801  0.
-1.3986086377800677 -8.586112296566338  0.
-2.336555178617155 -8.629469747659952  0.
2.444923922598482 -9.592963705748762  0.
1.4636298841685647 -9.550920116809458  0.
0.4873225498244038 -9.529898322339916  0.
-0.4873225498245501 -9.529898322339985  0.
-1.4636298841686708 -9.550920116809616  0.
-2.4449239225986545 -9.592963705748934  0.
2.549958243688117 -10.599138276851694  0.
1.5266504768222762 -10.558408550066718  0.
0.5083294140421847 -10.53804368667435  0.
-0.5083294140425216 -10.538043686674527  0.
-1.526650476822384 -10.558408550067117  0.
-2.5499582436882076 -10.599138276852091  0.
2.6516581418861502 -11.646659691812026  0.
1.5876704157409767 -11.607243827181357  0.
0.528669393681504 -11.587535894866267  0.
-0.5286693936823273 -11.587535894866626  0.
-1.5876704157410835 -11.607243827182161  0.
-2.651658141885843 -11.646659691812745  0.
2.750023617192833 -12.734194181473224  0.
1.6466897009246377 -12.696092178996794  0.
0.5483424887422329 -12.677041177758984  0.
-0.5483424887440387 -12.677041177759515  0.
-1.6466897009247452 -12.696092178997976  0.
-2.7500236171913603 -12.734194181474088  0.
2.8450546696085106 -13.860407976679143  0.
1.7037083323732487 -13.823619836356803  0.
0.5673486992243778 -13.805225766196006  0.
-0.5673486992276411 -13.805225766196289  0.
-1.7037083323733746 -13.823619836357409  0.
-2.845054669604414 -13.860407976678902  0.
2.936751299133408 -15.023967308274491  0.
1.7587263100867854 -14.988493030106056  0.
0.5856880251285053 -14.970755891021243  0.
-0.5856880251325667 -14.970755891019637  0.
-1.7587263100869956 -14.988493030102386  0.
-2.936751299124779 -15.023967308269075  0.
3.0251135057666376 -16.223538407105533  0.
1.8117436340651945 -16.189377991090996  0.
0.6033604664568418 -16.172297783079404  0.
-0.6033604664565887 -16.17229778307148  0.
-1.8117436340656632 -16.18937799107309  0.
-3.0251135057533425 -16.223538407084966  0.
3.1101412895034635 -17.457787504020143  0.
1.8627603043083851 -17.42494095016046  0.
0.6203660232154284 -17.408517673216267  0.
-0.6203660231936676 -17.40851767319264  0.
-1.8627603043094678 -17.4249409501073  0.
-3.110141289494841 -17.457787503965317  0.
3.1918346503293944 -18.72538082986475  0.
1.9117763208162668 -18.693848138163794  0.
0.6367046954170773 -18.678081792277872  0.
-0.63670469533099 -18.67808179222369  0.
-1.9117763208185008 -18.693848138042263  0.
-3.1918346503637656 -18.7253808297503  0.
3.2701935882105473 -20.02498461547164  0.
1.9587916835889494 -19.99476578594007  0.
0.6523764830821528 -19.979656371105747  0.
-0.6523764828481928 -19.979656371009725  0.
-1.958791683592652 -19.99476578572554  0.
-3.270193588394002 -20.02498461529425  0.
3.3452181030853962 -21.355265091623476  0.
2.0038063926273395 -21.326360124284204  0.
0.6673813862263915 -21.31190764052186  0.
-0.667381385729538 -21.31190764041538  0.
-2.003806392631014 -21.326360124048822  0.
-3.345218103647075 -21.35526509150112  0.
3.416908194881408 -22.71488848897627  0.
2.046820447934529 -22.68729738386644  0.
0.6817194048077934 -22.673501831292736  0.
-0.6817194040170274 -22.673501831360745  0.
-2.046820447930498 -22.687297384028472  0.
-3.416908196195518 -22.714888489401503  0.
3.4852638636247923 -24.1025210379325  0.
2.087833849518273 -24.076243795083208  0.
0.6953905385756337 -24.063105174062766  0.
-0.6953905379613841 -24.063105174888044  0.
-2.0878338494833457 -24.07624379695468  0.
-3.485263866013122 -24.102521040279537  0.
3.5502851097966404 -25.516828968528557  0.
2.126846597393833 -25.491865587872805  0.
0.7083947867369609 -25.47938389927109  0.
-0.7083947883555626 -25.47938390224475  0.
-2.1268465972742985 -25.491865594575767  0.
-3.550285112618797 -25.51682897578546  0.
3.611971935200005 -26.956478510638046  0.
2.1638586915825577 -26.93282899174489  0.
0.7207321473942401 -26.921004237162  0.
-0.720732157097116 -26.921004244873156  0.
-2.1638586912820217 -26.93282900906868  0.
-3.6119719342094796 -26.95647852773228  0.
3.670324344610404 -28.420135895373768  0.
2.198870132091496 -28.397800236853392  0.
0.7324026170056039 -28.38663241825717  0.
-0.7324026477279828 -28.386632433938118  0.
-2.1988701314995454 -28.397800271966137  0.
-3.670324326009572 -28.420135926693852  0.
3.7253423479384806 -29.906467359684825  0.
2.2318809188385447 -29.885445558167323  0.
0.7434061911208943 -29.874934675204777  0.
-0.7434062646985028 -29.874934698477926  0.
-2.2318809180092574 -29.88544560998567  0.
-3.725342278108064 -29.906467397407603  0.
3.777025960400995 -31.414139157624188  0.
2.2628910514562044 -31.39443120672463  0.
0.7537428701416549 -31.38457724778668  0.
-0.7537430076068633 -31.38457726039797  0.
-2.2628910511790377 -31.394431233775112  0.
-3.7770257752872647 -31.414139147505644  0.
3.825375192016272 -32.941817581957594  0.
2.2919005288867274 -32.923423473390805  0.
0.7634126787214492 -32.914226393527066  0.
-0.7634128517936941 -32.9142263238689  0.
-2.291900532063311 -32.92342331415107  0.
-3.8253748075299714 -32.94181734589984  0.
3.870390004390867 -34.488168992909465  0.
2.318909348762025 -34.47108872634942  0.
0.7724157141242004 -34.46254840452072  0.
-0.7724156999585963 -34.46254805852825  0.
-2.3189093629977573 -34.4710879446013  0.
-3.8703894132576626 -34.488168094019066  0.
3.9120701909901223 -36.051859822193755  0.
2.343917506986361 -36.036093439180206  0.
0.7807522406720028 -36.028209620352364  0.
-0.7807512876373497 -36.0282085866355  0.
-2.343917547913598 -36.03609111321694  0.
-3.912069799185936 -36.05185742178877  0.
3.9504151182752882 -37.63155644044006  0.
2.366924999321994 -37.61710411012966  0.
0.7884228200953101 -37.609876392777686  0.
-0.788419052851797 -37.609874018285424  0.
-2.366925090541996 -37.617098783662115  0.
-3.9504165995651985 -37.6315514206192  0.
3.9854233023375083 -39.22592460351855  0.
2.3879318303422483 -39.21278679108165  0.
0.7954283485161103 -39.206214876485454  0.
-0.795418100678382 -39.20621065832336  0.
-2.3879319861677177 -39.212777367630316  0.
-3.985431299649967 -39.22591680003691  0.
4.017092037784281 -40.83362790449797  0.
2.406938044598286 -40.82180561115777  0.
0.8017695332127392 -40.81589036193032  0.
-0.8017477381729453 -40.81588565855797  0.
-2.4069381999238244 -40.82179520721693  0.
-4.0171165990881965 -40.833622447232926  0.
4.045418092076783 -42.453324420773434  0.
2.4239438133440214 -42.442819244908364  0.
0.8074445987191466 -42.4375656848697  0.
-0.8074098172881861 -42.437568551210454  0.
-2.423943635256885 -42.44282611442697  0.
-4.045475661747301 -42.45334280854899  0.
4.070402334723486 -44.08366103442143  0.
2.4389496444634196 -44.07447438811878  0.
0.812442740823983 -44.06989819331428  0.
-0.8124154068517946 -44.0699341722557  0.
-2.43894811363325 -44.07455586028552  0.
-4.07050722623807 -44.08376347256895  0.
4.092065170582844 -45.723268260802776  0.
2.451956595056109 -45.71539707324962  0.
0.8167293877562046 -45.711536612533465  0.
-0.8167992515690162 -45.71166632834165  0.
-2.451951431635748 -45.71569017352832  0.
-4.092189608210562 -45.723585438585076  0.
4.110484110447767 -47.37076383821126  0.
2.4629650283111753 -47.36419376521734  0.
0.8202195895271055 -47.361122892503445  0.
-0.8206426277966474 -47.36146142052181  0.
-2.462952015973148 -47.364951270071394  0.
-4.110443631318508 -47.37151406041431  0.
4.125881525306817 -49.024813990653946  0.
2.471961550131684 -49.01948457832362  0.
0.8227405333789396 -49.017337027976964  0.
-0.8240820100266744 -49.01801760446649  0.
-2.4719389732957766 -49.02102858667185  0.
-4.1250674638025036 -49.02618374059735  0.
4.138756610841469 -50.68424974394048  0.
2.4788542061613428 -50.680131584720684  0.
0.82402502441143 -50.678992112046664  0.
-0.8272359345599534 -50.680031666134816  0.
-2.4788346443813283 -50.68237925918725  0.
-4.1357094367585265 -50.685949374719115  0.
4.150328184173387 -52.349093188252034  0.
2.483265474009582 -52.345533825719436  0.
0.8238313667685561 -52.345574033699464  0.
-0.8297432621690282 -52.345880858958715  0.
-2.483445805090253 -52.34680442604139  0.
-4.1420507497223795 -52.34855386724408  0.
4.161709307850264 -54.02005028984043  0.
2.483949446004287 -54.019264718049264  0.
0.8239071676295926 -54.01595843112393  0.
-0.8305337323074087 -54.012606889427296  0.
-2.485557854263356 -54.011062147529195  0.
-4.144452318412918 -54.01105924239337  0.
4.175928669685373 -55.73198419644078  0.
2.4893324381134976 -55.70012180639528  0.
0.8274105084803819 -55.682690514084264  0.
-0.829069995641653 -55.67436942604238  0.
-2.4856910963949206 -55.671625854468  0.
-4.144780378801092 -55.67128518082217  0.
</DataArray>
<DataArray type="Float64" Name="Nodal_sigma_xx" NumberOfComponents="1" format="ascii" >
0.07542910538939546 
0.05525715043088691 
0.017542597736188357 
-0.017542597736191653 
-0.05525715043089042 
-0.07542910538939918 
0.07364576107182799 
0.0551148585155642 
0.01829197797964936 
-0.01829197797965277 
-0.055114858515567675 
-0.0736457610718315 
0.07138767725064296 
0.05423255094802477 
0.01853871232270241 
-0.01853871232270594 
-0.05423255094802821 
-0.0713876772506463 
0.07023220970712701 
0.0528648315726278 
0.01774872671906341 
-0.01774872671906693 
-0.05286483157263121 
-0.07023220970713034 
0.06882454535420769 
0.05165929862882179 
0.017247025951717062 
-0.01724702595172057 
-0.05165929862882521 
-0.06882454535421106 
0.06735190112012052 
0.05051793384536502 
0.016841983285303883 
-0.016841983285307373 
-0.05051793384536848 
-0.06735190112012397 
0.06585793908993727 
0.04939307300706142 
0.016464103462091914 
-0.016464103462095384 
-0.04939307300706484 
-0.06585793908994066 
0.06436119180127554 
0.04827055760031812 
0.016089961699679474 
-0.01608996169968295 
-0.04827055760032157 
-0.06436119180127899 
0.06286427611833036 
0.04714811381844943 
0.015715975759283365 
-0.015715975759286818 
-0.047148113818452846 
-0.06286427611833383 
0.06136746137299386 
0.046025579624890366 
0.015341848938392525 
-0.015341848938396036 
-0.04602557962489369 
-0.06136746137299712 
0.05987068453175241 
0.04490301223696359 
0.014967669971086455 
-0.014967669971090024 
-0.04490301223696695 
-0.0598706845317557 
0.05837391642238707 
0.04378043767925167 
0.014593479468057224 
-0.014593479468060711 
-0.043780437679255074 
-0.058373916422390544 
0.05687714942893528 
0.04265786225028369 
0.014219287535815209 
-0.01421928753581856 
-0.04265786225028717 
-0.0568771494289389 
0.055380382418516776 
0.041535286857512246 
0.013845095648253182 
-0.013845095648256058 
-0.04153528685751582 
-0.055380382418520877 
0.053883615348648495 
0.040412711518006225 
0.013470903843681596 
-0.013470903843683636 
-0.040412711518010125 
-0.05388361534865374 
0.052386848259588614 
0.039290136194869964 
0.013096712065075724 
-0.013096712065076415 
-0.0392901361948744 
-0.05238684825959584 
0.05089008116674801 
0.0381675608748189 
0.012722520291445176 
-0.012722520291444812 
-0.038167560874823425 
-0.050890081166756675 
0.04939331407352436 
0.0370449855550528 
0.012348328518289537 
-0.012348328518292068 
-0.037044985555055754 
-0.04939331407352955 
0.04789654698035385 
0.035922410235241876 
0.011974136745057358 
-0.011974136745076636 
-0.035922410235238275 
-0.04789654698033846 
0.0463997798872398 
0.034799834915408084 
0.011599944971761285 
-0.011599944971833226 
-0.03479983491538517 
-0.04639977988715768 
0.04490301279418299 
0.033677259595579025 
0.011225753198416646 
-0.011225753198613873 
-0.0336772595955121 
-0.04490301279393824 
0.04340624570120159 
0.03255468427576526 
0.010851561425016166 
-0.010851561425446089 
-0.03255468427562089 
-0.04340624570064619 
0.04190947860826922 
0.03143210895595474 
0.010477369651587989 
-0.010477369652305737 
-0.03143210895572631 
-0.04190947860730543 
0.04041271151515171 
0.03030953363607111 
0.01010317787832581 
-0.010103177878999638 
-0.03030953363590544 
-0.04041271151415049 
0.0389159444210351 
0.029186958315875616 
0.009728986105875359 
-0.009728986104882074 
-0.029186958316396658 
-0.03891594442199458 
0.03741917732385103 
0.028064382994802052 
0.009354794335836948 
-0.009354794328352418 
-0.028064382997765844 
-0.037419177332906034 
0.03592241021947709 
0.02694180767180504 
0.008980602571316984 
-0.008980602546304383 
-0.026941807681058798 
-0.03592241025100784 
0.03442564310200929 
0.025819232345602898 
0.00860641081654947 
-0.00860641075450399 
-0.02581923236755723 
-0.03442564318220404 
0.03292887596899446 
0.024696657016441113 
0.008232219072514969 
-0.008232218951970472 
-0.02469665705701543 
-0.03292887612894775 
0.03143210884111204 
0.023574081691944842 
0.007858027321248675 
-0.007858027156668512 
-0.023574081741807654 
-0.031432109070558586 
0.02993534181439759 
0.02245150640157297 
0.007483835485273855 
-0.007483835446074977 
-0.022451506392475312 
-0.029935341911001306 
0.028438575168802098 
0.021328931224563898 
0.007109643345376432 
-0.007109644039405621 
-0.021328930929780995 
-0.028438574370323592 
0.02694180953534111 
0.020206356327737714 
0.0067354504192351835 
-0.006735453418987149 
-0.02020635518690863 
-0.0269418058175069 
0.025445046007664073 
0.01908378197315813 
0.006361255897976985 
-0.0063612643937183844 
-0.019083778901811635 
-0.02544503515888472 
0.023948285726426682 
0.01796120835331057 
0.005987059018820477 
-0.005987077726431422 
-0.017961201882036783 
-0.023948261253764227 
0.022451527626845987 
0.016838634887191853 
0.005612860895057666 
-0.005612892303656783 
-0.01683862470848326 
-0.02245148516707535 
0.020954761513811385 
0.01571605823646963 
0.005238669961107745 
-0.005238699688597472 
-0.01571605071801591 
-0.020954717095749264 
0.019457951815593972 
0.014593467954797783 
0.004864514440691556 
-0.004864471644032526 
-0.014593490348490994 
-0.01945799262153542 
0.017961007967037368 
0.013470839222326749 
0.004490464405812053 
-0.004490138050338648 
-0.013470968389332531 
-0.01796140234397979 
0.01646374910097369 
0.012348126129124717 
0.004116656160834602 
-0.00411556254738684 
-0.01234853071132342 
-0.016465127163479698 
0.014965915079910977 
0.011225272267826844 
0.003743276545264214 
-0.0037405588975333933 
-0.011226234085221734 
-0.014969426740590963 
0.013467392191595047 
0.010102289241475106 
0.0033703743238989356 
-0.0033650840045858707 
-0.010104070419698442 
-0.013474410473782433 
0.011969069191125899 
0.008979516745761246 
0.0029971830302553187 
-0.0029899320768679927 
-0.008981717625820555 
-0.011979169337791081 
0.010475099474345766 
0.007858273004237843 
0.0026203619635983082 
-0.0026185288274133546 
-0.007857911700772689 
-0.010479488353651974 
0.00899778741715734 
0.006742005088410386 
0.0022303197953798533 
-0.002260456801222127 
-0.006729213503960037 
-0.008963096574379548 
0.007565190023263035 
0.0056376049389275235 
0.001805093456565417 
-0.0019360160031221454 
-0.005587688468198286 
-0.007403177871613461 
0.006231699373852687 
0.004551690206235705 
0.001302613161299113 
-0.0016736508778435115 
-0.004418462848225643 
-0.005756078656784759 
0.005059047337727324 
0.0034772531612615384 
0.0006643603679709124 
-0.0014795770465327765 
-0.0031938840368346236 
-0.003995352229457622 
0.004097939845624457 
0.002310784834628572 
-0.0001319461140458834 
-0.0012008679415328072 
-0.0019170238087674015 
-0.002219833786193643 
0.0024904731064007445 
0.001043678019448263 
-0.0004790367952766451 
-0.0006469756818862916 
-0.0007661997579257241 
-0.0007934046751279369 
0.0013045940604810128 
0.00040639973236405254 
-0.00039075186378351493 
-0.0002896223976230816 
-0.0002615451664597303 
-0.00023355466948741946 
</DataArray>
<DataArray type="Float64" Name="Nodal_sigma_yy" NumberOfComponents="1" format="ascii" >
0.018274531527177992 
0.014089022048731768 
0.004951756285142484 
-0.004951756285143607 
-0.014089022048732826 
-0.018274531527179012 
0.008634504289516336 
0.007274796550041738 
0.002957544405283365 
-0.002957544405284153 
-0.0072747965500423815 
-0.008634504289516867 
-0.0005059183365508299 
9.477141487367795e-05 
0.00034773058314902335 
-0.0003477305831492817 
-9.477141487382497e-05 
0.0005059183365507744 
-6.354272742307467e-05 
-0.00020980012266555567 
-0.00017802875895402603 
0.00017802875895399893 
0.00020980012266553702 
6.354272742306079e-05 
-6.905265842484763e-05 
-9.093684041470637e-05 
-5.641051120229101e-05 
5.641051120228407e-05 
9.093684041472068e-05 
6.90526584248563e-05 
-1.0428175659769542e-05 
-1.918829767834948e-05 
-1.397420984848032e-05 
1.3974209848459504e-05 
1.9188297678357285e-05 
1.0428175659764338e-05 
-1.7249761334065666e-06 
-2.5782202659990587e-06 
-1.715732199287156e-06 
1.7157321992929023e-06 
2.5782202660101176e-06 
1.7249761334516694e-06 
9.871871583556902e-08 
5.698009144009496e-08 
7.620733511631058e-09 
-7.620733535591926e-09 
-5.698009145657483e-08 
-9.871871586332459e-08 
8.633783325079358e-08 
1.3373081664139544e-07 
9.056189997713e-08 
-9.05618999798405e-08 
-1.3373081658284852e-07 
-8.633783328375333e-08 
2.86478409744495e-08 
4.35417419832225e-08 
2.9217821424874085e-08 
-2.9217821549123654e-08 
-4.354174181864061e-08 
-2.8647840681281234e-08 
5.162725412108382e-09 
8.4437361521153e-09 
5.862373318287883e-09 
-5.862373533068333e-09 
-8.443735985581846e-09 
-5.162725160573478e-09 
4.954480836011355e-10 
8.535929274609139e-10 
6.058686880645002e-10 
-6.05869035334456e-10 
-8.535928795391778e-10 
-4.954480836011355e-10 
-8.317319229178555e-11 
-1.0599196065101679e-10 
-6.440562232840064e-11 
6.440493646210632e-11 
1.0599183510040522e-10 
8.317328163004456e-11 
-4.984764163940003e-11 
-7.552835678929781e-11 
-5.06048703917579e-11 
5.060392117275589e-11 
7.552803521493345e-11 
4.984755924003492e-11 
-1.3272277374354324e-11 
-2.0766709749389656e-11 
-1.4130980673793259e-11 
1.4129756826380957e-11 
2.0766103463534802e-11 
1.327187405114616e-11 
-2.1557139753825005e-12 
-3.528427333296391e-12 
-2.45050654030729e-12 
2.4506642917233867e-12 
3.5282957111526514e-12 
2.155390449454231e-12 
-1.1717970344049533e-13 
-2.2980684195872403e-13 
-1.6927252785223224e-13 
1.757112792939719e-13 
2.328996370759562e-13 
1.182656403364568e-13 
6.373634259260186e-14 
9.248179479171004e-14 
6.799026402645736e-14 
-4.313503764244442e-14 
-7.992174630433446e-14 
-5.882013626168359e-14 
3.298836898091295e-14 
5.735971593534561e-14 
6.073516255894473e-14 
6.767264700002773e-15 
-2.2818118922129926e-14 
-1.9431505016154205e-14 
2.1320618881492948e-14 
4.704093017893207e-14 
7.820128008692584e-14 
6.515399114323528e-14 
2.7720881146109377e-14 
8.775098703228679e-15 
2.6764181149108168e-14 
6.266688556966216e-14 
1.1454059272233974e-13 
1.125016421167635e-13 
5.962569847584032e-14 
2.4759708172616968e-14 
2.661672965365014e-14 
5.305543331057816e-14 
8.612473798366715e-14 
8.610890863194887e-14 
5.325210758466703e-14 
2.7041736905264457e-14 
-2.6510044159877566e-14 
-1.0284676756067146e-13 
-2.396876100374534e-13 
-2.392313777632715e-13 
-1.0203665169739029e-13 
-2.580227698167903e-14 
-2.448275956967727e-13 
-6.885867744055307e-13 
-1.4109391010142663e-12 
-1.4105080222304861e-12 
-6.879566361028822e-13 
-2.4442947665903603e-13 
-8.487169300686048e-13 
-2.2427513405448574e-12 
-4.445252082012005e-12 
-4.445163177433861e-12 
-2.2427214165648968e-12 
-8.488348912649712e-13 
-2.1531092880833214e-12 
-5.474924983858709e-12 
-1.0610776498979138e-11 
-1.0610755682297426e-11 
-5.474886819942237e-12 
-2.153074593613802e-12 
-4.283460738885303e-12 
-1.0453591985093436e-11 
-1.9748043586682862e-11 
-1.9748123383962757e-11 
-1.0453574204177807e-11 
-4.283265582494256e-12 
-6.114977448012926e-12 
-1.378351968152336e-11 
-2.4652114632419883e-11 
-2.4652714738322354e-11 
-1.3784569514486977e-11 
-6.11587690213522e-12 
-2.470188116554528e-12 
-1.4311876336825513e-12 
2.8855237968992975e-12 
2.885082526615096e-12 
-1.432743463800068e-12 
-2.4724172362211583e-12 
2.1699060083479882e-11 
6.558545709561131e-11 
1.39249170272868e-10 
1.3924937681338186e-10 
6.558436779768861e-11 
2.1696468406606773e-11 
1.0023388456043003e-10 
2.7171033934077216e-10 
5.462144720357574e-10 
5.46215624651087e-10 
2.7171030236947807e-10 
1.0023150538718273e-10 
2.915980937615026e-10 
7.554331689276633e-10 
1.4803021041484392e-09 
1.4803064177552026e-09 
7.554390067058409e-10 
2.9160114210433075e-10 
6.562182203878608e-10 
1.637705218291395e-09 
3.137781821182942e-09 
3.1378008941422997e-09 
1.6377336164736384e-09 
6.562368708336319e-10 
1.1349321660421297e-09 
2.689023171449298e-09 
4.981642749896965e-09 
4.981697949773753e-09 
2.6891052870786983e-09 
1.1349859975473553e-09 
1.1765926566376095e-09 
2.3584676081675124e-09 
3.831853077163961e-09 
3.831857182170226e-09 
2.358485689840824e-09 
1.1766206099717014e-09 
-1.133434247933135e-09 
-4.415454096426928e-09 
-1.0346423849047276e-08 
-1.034756430017057e-08 
-4.417074745462907e-09 
-1.1343946437585017e-09 
-1.065619563162673e-08 
-2.999996721755969e-08 
-6.152906262689071e-08 
-6.153743840092338e-08 
-3.001219155585478e-08 
-1.0663892760151561e-08 
-3.7072931486411415e-08 
-9.803077950332022e-08 
-1.94387599932434e-07 
-1.9442425866013672e-07 
-9.808504947898637e-08 
-3.710815398233827e-08 
-9.422675265394198e-08 
-2.397583764325844e-07 
-4.648406074388552e-07 
-4.649275145343076e-07 
-2.3989213574068455e-07 
-9.432045707923747e-08 
-1.8800189441727302e-07 
-4.589320829116142e-07 
-8.671001871814714e-07 
-8.669519744870211e-07 
-4.5874009766452405e-07 
-1.8791434931199336e-07 
-2.7038152632108403e-07 
-6.096624000262083e-07 
-1.0888753479015314e-06 
-1.0859009421705385e-06 
-6.054177566748326e-07 
-2.6784105108031836e-07 
-1.2169218651780084e-07 
-8.641726506727811e-08 
9.714091759125819e-08 
1.1540242016336267e-07 
-5.9456940685058326e-08 
-1.0429454289757022e-07 
9.124075416387222e-07 
2.7987117866170967e-06 
6.022209415103088e-06 
6.093056038846602e-06 
2.9029997828246648e-06 
9.7929028656683e-07 
4.280278699344588e-06 
1.1774068399609367e-05 
2.380200883263814e-05 
2.391480031562642e-05 
1.19633795967589e-05 
4.433318127667089e-06 
1.3177081167451516e-05 
3.352409797300948e-05 
6.509842866541567e-05 
6.448032544098187e-05 
3.2609400066367254e-05 
1.258389180303467e-05 
3.116223464591256e-05 
7.708271807271706e-05 
0.00014123556091077673 
0.00013371086615626977 
6.673932921411068e-05 
2.5524846437713724e-05 
7.486336649916282e-05 
0.00014808146873792127 
0.00023715489761731706 
0.000199584514485929 
8.938441484722336e-05 
3.261002498054311e-05 
8.952891225878388e-05 
0.00020391100763563527 
0.00023465565442083933 
9.160472073960329e-05 
1.724205508219748e-05 
2.292874514380329e-06 
0.0003319254727013126 
-1.1260260686533202e-05 
-0.0004902830154127562 
-0.0005247255360592505 
-0.0002627391618222714 
-0.00010214728827717532 
-0.003962566910170846 
-0.0037641278909713266 
-0.002951758525187714 
-0.0016952472009526946 
-0.0006233231527583631 
-0.0001939800822149576 
-0.008516893868273777 
-0.007288546506107053 
-0.004738836398691242 
-0.0023815881177122666 
-0.0007785643646363141 
-0.00021142614729025082 
</DataArray>
<DataArray type="Float64" Name="Nodal_sigma_xy" NumberOfComponents="1" format="ascii" >
-0.006200618349960451 
-0.0027628615690807705 
0.001863170744057086 
0.0018631707440569267 
-0.0027628615690812506 
-0.006200618349961092 
-0.003147464438795457 
-0.0020631578504788457 
-0.0003631099301275294 
-0.0003631099301276431 
-0.00206315785047913 
-0.003147464438795799 
-0.0002579368685107605 
-0.0013035714706715758 
-0.0025674600950773992 
-0.0025674600950774283 
-0.0013035714706716038 
-0.0002579368685107586 
-0.0005761372111742228 
-0.0013054962502741813 
-0.0024064351441431416 
-0.0024064351441431212 
-0.001305496250274136 
-0.0005761372111741723 
-0.0007814040767459723 
-0.001385429774230917 
-0.0022238681874005464 
-0.00222386818740052 
-0.0013854297742308614 
-0.0007814040767459133 
-0.0008412597753495784 
-0.0014078008956568753 
-0.0021715692166727257 
-0.002171569216672707 
-0.0014078008956568493 
-0.0008412597753495628 
-0.0008512866850463518 
-0.0014125301730651553 
-0.0021618264844160536 
-0.0021618264844160454 
-0.001412530173065149 
-0.0008512866850463565 
-0.0008520002516366131 
-0.0014129999280426133 
-0.0021609999461434507 
-0.002160999946143439 
-0.001412999928042597 
-0.000852000251636604 
-0.0008517605677513492 
-0.0014129556923047942 
-0.002161164023823852 
-0.002161164023823844 
-0.0014129556923047982 
-0.0008517605677513726 
-0.0008516477781662291 
-0.0014129168772633823 
-0.0021612592336578084 
-0.002161259233657819 
-0.001412916877263402 
-0.0008516477781662474 
-0.0008516203435597211 
-0.001412906076824949 
-0.0021612837513995038 
-0.0021612837513995064 
-0.0014129060768249423 
-0.0008516203435597028 
-0.0008516163194296346 
-0.0014129041795551923 
-0.002161287660734379 
-0.0021612876607343167 
-0.0014129041795550802 
-0.0008516163194295353 
-0.000851616225821055 
-0.001412904044918248 
-0.0021612878421758243 
-0.002161287842175684 
-0.001412904044917995 
-0.0008516162258208305 
-0.0008516163824370292 
-0.0014129040869039766 
-0.002161287721882359 
-0.0021612877218820355 
-0.001412904086903327 
-0.000851616382436377 
-0.0008516164399107709 
-0.0014129041075747382 
-0.0021612876724751494 
-0.002161287672474523 
-0.001412904107573481 
-0.0008516164399095084 
-0.0008516164521517936 
-0.0014129041126260233 
-0.002161287661303723 
-0.0021612876613029772 
-0.001412904112624437 
-0.0008516164521501138 
-0.0008516164536284842 
-0.0014129041133802706 
-0.0021612876598099146 
-0.0021612876598100976 
-0.001412904113379869 
-0.0008516164536273155 