<?xml version="1.0"?>
<VTKFile type="UnstructuredGrid" version="0.1" byte_order="LittleEndian" compressor="vtkZLibDataCompressor">
<UnstructuredGrid>
<Piece NumberOfPoints="306" NumberOfCells="250">
<PointData>
<DataArray type="Float64" Name="displacement" NumberOfComponents="3" format="ascii" >
0.0 0.0  0.
0.0 0.0  0.
0.0 0.0  0.
0.0 0.0  0.
0.0 0.0  0.
0.0 0.0  0.
0.17524259014049196 -0.11701452558423996  0.
0.09113123752294872 -0.041318228682325445  0.
0.029998709559567054 -0.011735803595822367  0.
-0.02999870955957197 -0.01173580359582321  0.
-0.09113123752295375 -0.04131822868232819  0.
-0.17524259014049848 -0.11701452558424565  0.
0.3524598515494737 -0.2311179446136898  0.
0.20406463227643473 -0.1608502785591936  0.
0.0659698438109255 -0.12294326504923883  0.
-0.06596984381093629 -0.1229432650492402  0.
-0.20406463227644597 -0.16085027855919787  0.
-0.352459851549486 -0.23111794461369695  0.
0.5283623003484333 -0.4155270578281462  0.
0.3125319881186218 -0.3457128084639976  0.
0.10320805572458296 -0.31022725448619054  0.
-0.10320805572460011 -0.31022725448619215  0.
-0.3125319881186393 -0.3457128084640023  0.
-0.5283623003484513 -0.41552705782815386  0.
0.7024082077328778 -0.6693200588620609  0.
0.4176225748507872 -0.601282365761084  0.
0.13850439086649707 -0.5670864507128363  0.
-0.13850439086652064 -0.5670864507128379  0.
-0.4176225748508109 -0.6012823657610886  0.
-0.7024082077329018 -0.6693200588620686  0.
0.8730411446239559 -0.992412759462451  0.
0.5200918800353298 -0.9258847630096078  0.
0.17273266498882958 -0.8926023793425711  0.
-0.17273266498885945 -0.8926023793425727  0.
-0.5200918800353597 -0.9258847630096125  0.
-0.873041144623986 -0.9924127594624588  0.
1.0399757684033624 -1.383093543665698  0.
0.6202517183102088 -1.3180568521318101  0.
0.2061276899593413 -1.2855383546324441  0.
-0.2061276899593774 -1.2855383546324457  0.
-0.6202517183102448 -1.3180568521318148  0.
-1.0399757684033986 -1.3830935436657055  0.
1.2031575906507128 -1.8398169237040864  0.
0.7181563335441647 -1.7762590238894618  0.
0.23876269281878174 -1.7444811723826792  0.
-0.23876269281882406 -1.7444811723826807  0.
-0.7181563335442069 -1.7762590238894662  0.
-1.203157590650755 -1.8398169237040938  0.
1.3625857038594444 -2.361063847905933  0.
0.8138117150323577 -2.2989839870490902  0.
0.27064740070239734 -2.2679443943772517  0.
-0.27064740070244575 -2.2679443943772535  0.
-0.8138117150324061 -2.2989839870490947  0.
-1.3625857038594928 -2.3610638479059403  0.
1.5182617464877337 -2.9453314476372148  0.
0.9072170447054486 -2.8847295844913052  0.
0.3017823741841348 -2.8544287222430342  0.
-0.3017823741841893 -2.8544287222430356  0.
-0.907217044705503 -2.8847295844913097  0.
-1.518261746487788 -2.9453314476372223  0.
1.6701864023568005 -3.5911190314711656  0.
0.9983718068384217 -3.531995239203191  0.
0.33216726667173524 -3.502433350036492  0.
-0.33216726667179597 -3.502433350036494  0.
-0.9983718068384826 -3.5319952392031952  0.
-1.6701864023568613 -3.591119031471173  0.
1.8183598156939111 -4.296926187783292  0.
1.0872758579821762 -4.239280485900824  0.
0.361801947395725 -4.210457634208208  0.
-0.361801947395792 -4.210457634208209  0.
-1.0872758579822432 -4.239280485900829  0.
-1.8183598156939775 -4.296926187783299  0.
1.9627820052874725 -5.06125245728898  0.
1.173929174266569 -5.00508485003527  0.
0.3906863864288552 -4.977001045811666  0.
-0.39068638642892795 -4.977001045811667  0.
-1.1739291742666422 -5.005084850035273  0.
-1.962782005287545 -5.061252457288986  0.
2.1034529705642986 -5.882597357269528  0.
1.258331754145436 -5.827907845033143  0.
0.4188205799582575 -5.800563088749467  0.
-0.41882057995833466 -5.800563088749467  0.
-1.2583317541455152 -5.8279078450331445  0.
-2.1034529705643794 -5.882597357269534  0.
2.240372710486315 -6.759460398453262  0.
1.3404835982228822 -6.706248981188592  0.
0.4462045280511859 -6.679643272527528  0.
-0.44620452805126565 -6.679643272527527  0.
-1.3404835982229677 -6.706248981188591  0.
-2.240372710486405 -6.759460398453266  0.
2.3735412247229406 -7.690341090549187  0.
1.4203847067738382 -7.638607768219781  0.
0.47283823091337573 -7.612741107053076  0.
-0.47283823091345495 -7.6127411070530755  0.
-1.42038470677393 -7.638607768219779  0.
-2.3735412247230463 -7.690341090549191  0.
2.502958513210903 -8.673738943209516  0.
1.4980350798638764 -8.623483715805515  0.
0.49872168861094884 -8.59835610210417  0.
-0.4987216886110268 -8.598356102104173  0.
-1.4980350798639737 -8.623483715805525  0.
-2.502958513211034 -8.673738943209534  0.
2.628624575944029 -9.708153466116954  0.
1.5734347175024086 -9.659376333636654  0.
0.5238549011568734 -9.634987767396831  0.
-0.5238549011569619 -9.634987767396852  0.
-1.573434717502511 -9.659376333636706  0.
-2.6286245759441935 -9.708153466117022  0.
2.7505394129231977 -10.792084168966891  0.
1.646583619689582 -10.744785131410175  0.
0.5482378685524405 -10.72113561263194  0.
-0.5482378685525926 -10.721135612632018  0.
-1.6465836196896881 -10.744785131410351  0.
-2.750539412923379 -10.792084168967085  0.
2.868703024149035 -11.924030561457649  0.
1.717481786425007 -11.878209618824549  0.
0.571870590797444 -11.855299147508136  0.
-0.5718705907978103 -11.855299147508335  0.
-1.7174817864251144 -11.878209618824997  0.
-2.8687030241491236 -11.924030561458094  0.
2.9831154096218224 -13.10249215328798  0.
1.7861292177085442 -13.058149305578477  0.
0.5947530678916788 -13.035977881724001  0.
-0.5947530678925904 -13.035977881724405  0.
-1.78612921770865 -13.058149305579382  0.
-2.9831154096214627 -13.102492153288788  0.
3.0937765693418395 -14.325968454156788  0.
1.8525259135401628 -14.283103701370804  0.
0.6168852998349991 -14.261671324978266  0.
-0.6168852998370157 -14.261671324978863  0.
-1.8525259135402687 -14.28310370137213  0.
-3.093776569340168 -14.325968454157756  0.
3.200686503309477 -15.592958973763402  0.
1.91667187391985 -15.55157231590077  0.
0.6382672866274124 -15.530878986969874  0.
-0.6382672866310674 -15.53087898697019  0.
-1.9166718739199764 -15.551572315901451  0.
-3.2006865033048526 -15.59295897376313  0.
3.303845211524986 -16.901963221808124  0.
1.978567098847579 -16.862054658868637  0.
0.6588990282695563 -16.84210037739822  0.
-0.6588990282741081 -16.842100377396417  0.
-1.9785670988477997 -16.86205465886451  0.
-3.3038452115152626 -16.90196322180203  0.
3.40325269398737 -18.251480707993004  0.
2.0382115883232896 -18.213050239976653  0.
0.6787805247639351 -18.19383500596361  0.
-0.6787805247636326 -18.193835005954693  0.
-2.0382115883238 -18.213050239956505  0.
-3.4032526939723966 -18.251480707969865  0.
3.4989089506913 -19.6400109420219  0.
2.0956053423468797 -19.603058568929757  0.
0.6979117761173453 -19.58458238236754  0.
-0.6979117760928462 -19.584582382340958  0.
-2.09560534234808 -19.603058568869947  0.
-3.4989089506815834 -19.640010941960217  0.
3.590813981620474 -21.06605343359704  0.
2.1507483609182474 -21.030579155433465  0.
0.7162927823442007 -21.0128420163118  0.
-0.7162927822473345 -21.012842016250847  0.
-2.150748360920742 -21.030579155296742  0.
-3.5908139816591245 -21.066053433468284  0.
3.6789677867367727 -22.528107692404753  0.
2.203640644037516 -22.494111509181735  0.
0.7339235434674103 -22.477113417493122  0.
-0.7339235432041873 -22.47711341738509  0.
-2.2036406440416627 -22.49411150894039  0.
-3.6789677869431405 -22.52810769220519  0.
3.7633703659709794 -24.024673228075525  0.
2.2542821917057063 -23.99215513981884  0.
0.7508040595046792 -23.9758960955862  0.
-0.750804058945701 -23.975896095466418  0.
-2.254282191709821 -23.992155139554036  0.
-3.7633703666028477 -24.02467322793787  0.
3.844021719241495 -25.55424955009738  0.
2.3026730039262957 -25.52320955684882  0.
0.7669343304087565 -25.5076895602034  0.
-0.7669343295191267 -25.50768956027991  0.
-2.3026730039217402 -25.5232095570311  0.
-3.844021720719846 -25.55424955057576  0.
3.9209218465778046 -27.1153361676731  0.
2.3488130807080094 -27.085774269467638  0.
0.7823143558975774 -27.070993320819646  0.
-0.7823143552065285 -27.07099332174808  0.
-2.3488130806686947 -27.085774271573044  0.
-3.920921849264652 -27.115336170313512  0.
3.9940707485211355 -28.70643258959362  0.
2.392702422068016 -28.678348786355897  0.
0.7969441350790708 -28.664306886678972  0.
-0.7969441368999799 -28.66430689002434  0.
-2.3927024219335173 -28.67834879389673  0.
-3.994070751696037 -28.70643259775764  0.
4.063468427099924 -30.326038324466758  0.
2.434341028030333 -30.299432615711957  0.
0.8108236658185108 -30.2861297668062  0.
-0.8108236767342271 -30.286129775481257  0.
-2.434341027692206 -30.29943263520122  0.
-4.063468425985558 -30.326038343697768  0.
4.129114887686625 -31.97265288229441  0.
2.473728898602889 -31.94752526645898  0.
0.8239529441312956 -31.934961470538237  0.
-0.823952978693952 -31.934961488179297  0.
-2.4737288979369216 -31.94752530596082  0.
-4.129114866760665 -31.972652917529498  0.
4.191010141430713 -33.64477577964431  0.
2.5108660336933197 -33.62112625293712  0.
0.8363319650109975 -33.60930150960426  0.
-0.8363320477857856 -33.60930153578655  0.
-2.510866032760348 -33.62112631123276  0.
-4.191010062871471 -33.64477582208244  0.
4.249154205451045 -35.34090655232606  0.
2.545752432888187 -35.31873510756406  0.
0.8479607289093531 -35.307649403758866  0.
-0.8479608835576914 -35.307649417946564  0.
-2.545752432576352 -35.31873513799585  0.
-4.249153997198075 -35.3409065409427  0.
4.303547091018232 -37.05954477970111  0.
2.578388094997527 -37.03885140756347  0.
0.8588392635616243 -37.028504692716766  0.
-0.8588394582678768 -37.02850461435133  0.
-2.5783880985711605 -37.03885122841877  0.
-4.303546658471121 -37.05954451413614  0.
4.354188754939651 -38.79919011702193  0.
2.608773017357237 -38.779974817141884  0.
0.8689676783897204 -38.77036695508458  0.
-0.8689676624533913 -38.770366565843055  0.
-2.608773033372414 -38.77997393767524  0.
-4.354188089914776 -38.79918910577023  0.
4.401078964863817 -40.558342299966725  0.
2.6369071953596173 -40.54060511907648  0.
0.878346270755998 -40.53173582289515  0.
-0.8783451985919905 -40.53173465996368  0.
-2.636907241402735 -40.540602502367804  0.
-4.401078524084084 -40.558339599511115  0.
4.444217008059631 -42.33550099549378  0.
2.6627906242372057 -42.31924212389459  0.
0.8869756726072191 -42.311110941873615  0.
-0.8869714344582437 -42.31110827056982  0.
-2.6627907268596855 -42.319236131618595  0.
-4.444218674510756 -42.33549534819532  0.
4.48360121512963 -44.12916517895705  0.
2.6864233091349927 -44.11438513996554  0.
0.8948568920806197 -44.10699173604482  0.
-0.8948453632631521 -44.106986990612455  0.
-2.6864234844386217 -44.11437453858279  0.
-4.483610212106121 -44.12915640004021  0.
4.519228542507252 -45.93783139255888  0.
2.7078053001730367 -45.924531312551146  0.
0.901990724864328 -45.91787665717026  0.
-0.9019662054445362 -45.91787136587637  0.
-2.7078054749142426 -45.924519608117706  0.
-4.51925617397413 -45.9378252531357  0.
4.551095353586319 -47.75998997336874  0.
2.72693679001199 -47.74817165052054  0.
0.9083751735590366 -47.742261395477044  0.
-0.9083360444491816 -47.74226462011038  0.
-2.7269365896639357 -47.74817937872897  0.
-4.551160119465623 -47.76001065961624  0.
4.579202626563859 -49.59411866372271  0.
2.743818350021313 -49.58378368663223  0.
0.9139980834269773 -49.57863546747716  0.
-0.9139673327082409 -49.57867594378626  0.
-2.743816627837347 -49.58387534281981  0.
-4.579320629517741 -49.59423390663866  0.
4.603573316905634 -51.43867679340169  0.
2.75845116943809 -51.42982170740439  0.
0.9188205612257269 -51.42547868909872  0.
-0.9188991580151156 -51.42562461938292  0.
-2.758445360590157 -51.43015144521793  0.
-4.603713309236796 -51.439033618406775  0.
4.624294624253675 -53.2921093179862  0.
2.7708356568500405 -53.28471798586805  0.
0.9227470382179904 -53.28126325406492  0.
-0.9232229562712008 -53.28164409808558  0.
-2.7708210179697312 -53.285570178828856  0.
-4.624249085233235 -53.29295331796464  0.
4.641616715970106 -55.1529157394842  0.
2.780956743898112 -55.146920150612594  0.
0.9255831000513062 -55.1445041564726  0.
-0.9270922612799803 -55.14526980502331  0.
-2.78093134495769 -55.14865716000433  0.
-4.640700896777729 -55.15445670817052  0.
4.6561011871965885 -57.019780961931524  0.
2.788710981931478 -57.01514803280925  0.
0.9270281524628577 -57.01386612605098  0.
-0.9306404263799202 -57.01503562440015  0.
-2.788688974928935 -57.01767666658414  0.
-4.6526731163532515 -57.02169304655749  0.
4.6691192071949965 -58.89272983678199  0.
2.7936736582607473 -58.888725553932815  0.
0.9268102876146246 -58.888770787910346  0.
-0.9334611699401277 -58.889115966327  0.
-2.7938765307264757 -58.89015497929501  0.
-4.659807093437589 -58.892123100648035  0.
4.681922971331485 -60.772556576068894  0.
2.7944431267547905 -60.77167280780384  0.
0.92689556358329 -60.76795323501283  0.
-0.9343504488458041 -60.76418275060412  0.
-2.7962525860462173 -60.76244491596876  0.
-4.662508858214446 -60.76244164769096  0.
4.697919753395983 -62.698482220994265  0.
2.800498992877651 -62.66263703219308  0.
0.9308368220404293 -62.643026828343174  0.
-0.932703745096827 -62.63366560429607  0.
-2.796402483444227 -62.6305790862749  0.
-4.662877926151142 -62.63019582842334  0.
</DataArray>
<DataArray type="Float64" Name="Nodal_sigma_xx" NumberOfComponents="1" format="ascii" >
0.0848577435630658 
0.06216429423474485 
0.019735422453211117 
-0.01973542245321445 
-0.06216429423474838 
-0.08485774356306953 
0.08285148120580255 
0.06200421583000684 
0.020578475227104712 
-0.020578475227108164 
-0.062004215830010354 
-0.0828514812058061 
0.08031113690696966 
0.06101161981652513 
0.020856051363039405 
-0.020856051363042992 
-0.061011619816528605 
-0.08031113690697303 
0.07901123592051437 
0.05947293551920367 
0.019967317558945596 
-0.01996731755894917 
-0.05947293551920714 
-0.07901123592051773 
0.07742761352348031 
0.05811671095742206 
0.019402904195681015 
-0.01940290419568454 
-0.05811671095742553 
-0.07742761352348373 
0.0757708887601325 
0.05683267557603338 
0.018947231195966262 
-0.018947231195969756 
-0.056832675576036856 
-0.07577088876013593 
0.07409018147617656 
0.05556720713294197 
0.018522116394852826 
-0.01852211639485631 
-0.05556720713294544 
-0.07409018147618 
0.07240634077643224 
0.054304377300355845 
0.018101206912138873 
-0.018101206912142325 
-0.05430437730035937 
-0.07240634077643579 
0.0707223106331191 
0.05304162804575371 
0.017680472729193337 
-0.017680472729196726 
-0.05304162804575716 
-0.07072231063312251 
0.06903839404461556 
0.05177877707799985 
0.01725958005569122 
-0.01725958005569463 
-0.051778777078003345 
-0.0690383940446191 
0.06735452009821932 
0.050515888766582404 
0.016838628717471906 
-0.016838628717475407 
-0.05051588876658601 
-0.06735452009822289 
0.06567065597518368 
0.049252992389156716 
0.016417664401564072 
-0.016417664401567486 
-0.04925299238916023 
-0.06567065597518708 
0.06398679310755036 
0.047990095031567884 
0.015996698477791945 
-0.015996698477795113 
-0.047990095031571395 
-0.06398679310755409 
0.06230293022082991 
0.04672719771470024 
0.015575732604284638 
-0.015575732604287382 
-0.04672719771470385 
-0.06230293022083423 
0.06061906726722849 
0.04546430045775604 
0.015154766824141458 
-0.015154766824143424 
-0.04546430045776 
-0.06061906726723384 
0.05893520429203624 
0.044201403219227865 
0.014733801073209924 
-0.014733801073210335 
-0.04420140321923248 
-0.058935204292043936 
0.05725134131259056 
0.042938505984170636 
0.014312835327875667 
-0.014312835327874984 
-0.04293850598417531 
-0.057251341312600054 
0.05556747833271407 
0.04167560874943385 
0.013891869583075572 
-0.013891869583078259 
-0.04167560874943676 
-0.055567478332719494 
0.05388361535289725 
0.040412711514646565 
0.013470903838189467 
-0.013470903838211024 
-0.040412711514642256 
-0.053883615352879416 
0.052199752373143865 
0.03914981427983365 
0.013049938093231572 
-0.01304993809331221 
-0.039149814279807627 
-0.05219975237305112 
0.05051588939345528 
0.037886917045026114 
0.012628972348218782 
-0.012628972348440369 
-0.03788691704495041 
-0.050515889393179476 
0.04883202641385157 
0.0366240198102358 
0.012208006603143189 
-0.012208006603626613 
-0.036624019810073 
-0.048832026413226426 
0.047148163434303024 
0.03536112257544925 
0.01178704085803677 
-0.011787040858843606 
-0.035361122575191944 
-0.04714816343321864 
0.0454643004545465 
0.03409822534058056 
0.011366075113116934 
-0.01136607511387423 
-0.03409822534039344 
-0.04546430045341916 
0.04378043747366549 
0.03283532810536072 
0.010945109369110192 
-0.010945109367992072 
-0.03283532810594636 
-0.04378043747474414 
0.0420965744893333 
0.03157243086915285 
0.010524143627816803 
-0.01052414361939653 
-0.03157243087248699 
-0.042096574499519715 
0.04041271149691249 
0.03030953363078117 
0.010103177892731524 
-0.010103177864592559 
-0.03030953364119114 
-0.04041271153238396 
0.03872884848976096 
0.029046636388803712 
0.009682212168618124 
-0.009682212098816886 
-0.029046636413501765 
-0.03872884857997998 
0.03704498546511889 
0.027783739143496362 
0.009261246456579707 
-0.009261246320966473 
-0.027783739189142575 
-0.037044985645066635 
0.03536112244625049 
0.026520841903438196 
0.008840280736405332 
-0.008840280551252574 
-0.02652084195953414 
-0.03536112270437837 
0.03367725954119617 
0.025257944701769983 
0.008419314920933705 
-0.00841931487683548 
-0.02525794469153537 
-0.03367725964987617 
0.03199339706490251 
0.023995047627635057 
0.007998348763549613 
-0.007998349544331203 
-0.023995047296004407 
-0.03199339616661478 
0.03030953572725996 
0.022732150868705912 
0.007577381721640484 
-0.007577385096360147 
-0.022732149585273594 
-0.030309531544697788 
0.028625676758621814 
0.02146925471980357 
0.007156412885224816 
-0.007156422442933203 
-0.021469251264538865 
-0.028625664553747026 
0.026941821442229757 
0.020206359397475282 
0.00673544139617393 
-0.006735462442235791 
-0.02020635211729201 
-0.026941793910485394 
0.025257968580202326 
0.01894346424809203 
0.00631446850694062 
-0.006314503841614701 
-0.018943452797044548 
-0.025257920812960192 
0.02357410670303782 
0.017680565516028757 
0.005893503706246452 
-0.005893537149672744 
-0.01768055705776795 
-0.0235740567327172 
0.021890195792544774 
0.01641765144914724 
0.005472578745776958 
-0.005472530599536984 
-0.01641767664205203 
-0.021890241699225883 
0.020206133962918954 
0.015154694125117354 
0.005051772456537493 
-0.005051405306631221 
-0.015154839437999225 
-0.020206577636976777 
0.0185217177385969 
0.01389164189526567 
0.004631238180938599 
-0.004630007865809955 
-0.013892097050238347 
-0.01852326805891403 
0.01683665446490195 
0.012628431301305828 
0.0042111861134221515 
-0.004208128759724712 
-0.01262951334587434 
-0.016840605083164657 
0.015150816215547258 
0.011365075396659933 
0.003791671114386457 
-0.003785719505158219 
-0.011367079222161139 
-0.015158711783005532 
0.01346520284001984 
0.010101956338982001 
0.003371830909036799 
-0.003363673586475396 
-0.01010443232904784 
-0.013476565505015449 
0.011784486908640587 
0.008840557129767756 
0.0029479072090466854 
-0.002945844930840337 
-0.008840150663369815 
-0.011789424397860512 
0.010122510844305047 
0.007584755724462532 
0.0025091097698006783 
-0.002543013901375949 
-0.00757036519195598 
-0.010083483646178722 
0.008510838776175252 
0.006342305556295127 
0.002030730138635065 
-0.002178018003513054 
-0.006286149526723579 
-0.008328575105565924 
0.00701066179558653 
0.005120651482015975 
0.0014654398064604182 
-0.0018828572375749124 
-0.004970770704253445 
-0.006475588488881648 
0.005691428254943895 
0.003911909806418768 
0.0007474054139654813 
-0.0016645241773505176 
-0.003593119541438435 
-0.004494771258138512 
0.004610182326328644 
0.0025996329389572446 
-0.00014843937830216763 
-0.001350976434223604 
-0.002156651784862395 
-0.0024973130094677644 
0.002801782244701508 
0.0011741377718795208 
-0.0005389163946851042 
-0.0007278476421189971 
-0.0008619747276645164 
-0.0008925802595187806 
0.0014676683180405656 
0.00045719969890876705 
-0.00043959584675496197 
-0.00032582519732189853 
-0.0002942383122650556 
-0.00026274900317320665 
</DataArray>
<DataArray type="Float64" Name="Nodal_sigma_yy" NumberOfComponents="1" format="ascii" >
0.020558847968074244 
0.015850149804822487 
0.005570725820785074 
-0.005570725820786214 
-0.015850149804823552 
-0.02055884796807526 
0.009713817325705405 
0.008184146118796568 
0.003327237455943657 
-0.00332723745594446 
-0.008184146118797218 
-0.009713817325705934 
-0.0005691581286196325 
0.00010661784173289762 
0.0003911969060426371 
-0.0003911969060429151 
-0.00010661784173303509 
0.0005691581286196064 
-7.148556835095098e-05 
-0.0002360251379987478 
-0.00020028235382327388 
0.00020028235382324688 
0.00023602513799872047 
7.148556835094404e-05 
-7.768424072797896e-05 
-0.00010230394546656288 
-6.346182510255177e-05 
6.346182510259894e-05 
0.00010230394546655724 
7.768424072795987e-05 
-1.1731697617247891e-05 
-2.1586834888138746e-05 
-1.5720986079491924e-05 
1.5720986079542447e-05 
2.1586834888143516e-05 
1.1731697617247891e-05 
-1.940598150049211e-06 
-2.900497799255067e-06 
-1.9301987242139815e-06 
1.9301987242426044e-06 
2.9004977992203723e-06 
1.9405981499884956e-06 
1.1105855526362396e-07 
6.410260276670104e-08 
8.573325170505106e-09 
-8.573325140039025e-09 
-6.410260291068309e-08 
-1.1105855547005605e-07 
9.713006228137533e-08 
1.504471685495612e-07 
1.0188213747121515e-07 
-1.0188213742025765e-07 
-1.5044716863196056e-07 
-9.713006229872256e-08 
3.222882079094436e-08 
4.8984459544154646e-08 
3.287004920343468e-08 
-3.287004912428792e-08 
-4.898445962134984e-08 
-3.2228820884619425e-08 
5.808065937917828e-09 
9.499202953313496e-09 
6.5951700520630076e-09 
-6.5951700480514595e-09 
-9.499203186200122e-09 
-5.8080661408804746e-09 
5.573791966168029e-10 
9.60291902636981e-10 
6.816023740969894e-10 
-6.816024537858491e-10 
-9.602921487508742e-10 
-5.573792503932307e-10 
-9.356996254206162e-11 
-1.1924102222109212e-10 
-7.245613419144814e-11 
7.245575537120907e-11 
1.192408134037537e-10 
9.356992958231558e-11 
-5.607856713718551e-11 
-8.496935967328145e-11 
-5.6930395076967844e-11 
5.6929573034880665e-11 
8.496904373676839e-11 
5.607830345921716e-11 
-1.4930869041140937e-11 
-2.336259245956651e-11 
-1.589754228866619e-11 
1.5896230620877916e-11 
2.3362009592478583e-11 
1.4930789243861042e-11 
-2.4249144359167474e-12 
-3.969645358953278e-12 
-2.7570687161256047e-12 
2.757146019740503e-12 
3.9692392168194646e-12 
2.424425243896522e-12 
-1.3197949677579146e-13 
-2.5857246031824044e-13 
-1.9062540174835663e-13 
1.9750227928799768e-13 
2.617524252901404e-13 
1.3241491236826164e-13 
7.161979342917846e-14 
1.0398192723526378e-13 
7.6216810640517e-14 
-4.869845846022791e-14 
-8.977887877570367e-14 
-6.607128039126664e-14 
3.686894539667307e-14 
6.434588105397321e-14 
6.827427078553994e-14 
7.449011026061658e-15 
-2.5408928433501288e-14 
-2.0990154059319366e-14 
2.3154221595600433e-14 
5.2580119078160514e-14 
8.795151022408798e-14 
7.279739961882359e-14 
3.138136452085494e-14 
1.1064933691518064e-14 
2.951198313505543e-14 
7.018604447628363e-14 
1.2861950003315026e-13 
1.262310026471647e-13 
6.733480960308125e-14 
2.8586508160621804e-14 
2.983290697811114e-14 
5.95823303889409e-14 
9.661976080321821e-14 
9.67331683504602e-14 
5.997155896886319e-14 
3.0384549043471765e-14 
-2.939315457695102e-14 
-1.1542936745323473e-13 
-2.695781965711408e-13 
-2.691653323838583e-13 
-1.1503775362853297e-13 
-2.943565530211245e-14 
-2.740290633296283e-13 
-7.738855129640898e-13 
-1.5869466114468156e-12 
-1.5865881742085919e-12 
-7.74054865343432e-13 
-2.7508464256476017e-13 
-9.536590267478218e-13 
-2.522463141141351e-12 
-5.000456429135602e-12 
-5.000619059461475e-12 
-2.5234645102678588e-12 
-9.553365043490913e-13 
-2.4216201960358674e-12 
-6.1590702156444355e-12 
-1.1936928713280476e-11 
-1.1937223616271392e-11 
-6.159872958932944e-12 
-2.422635876631052e-12 
-4.8185786957755106e-12 
-1.1760104608876665e-11 
-2.2216869999518857e-11 
-2.2216763964546388e-11 
-1.176006579443889e-11 
-4.818713136844899e-12 
-6.879688659033878e-12 
-1.5506561746453373e-11 
-2.7734017122790777e-11 
-2.7733848637773173e-11 
-1.550689763228641e-11 
-6.8806974007351585e-12 
-2.7803913685287007e-12 
-1.6111654111555795e-12 
3.2464729960313826e-12 
3.2465855362168866e-12 
-1.611772781212606e-12 
-2.7818311890137615e-12 
2.4408306105450084e-11 
7.378260784458857e-11 
1.5665592458771922e-10 
1.566547107149669e-10 
7.378188880170777e-11 
2.440929576519313e-11 
1.1275889597039956e-10 
3.056734069421113e-10 
6.144920200392041e-10 
6.144906959030909e-10 
3.05673758115195e-10 
1.1276224658879341e-10 
3.280459671267666e-10 
8.498619566334881e-10 
1.6653413560544037e-09 
1.6653449805422663e-09 
8.498683241528471e-10 
3.2805145318975937e-10 
7.382458463989217e-10 
1.8424188100727226e-09 
3.5300055689667983e-09 
3.5300266834788468e-09 
1.842448826318288e-09 
7.382636498659556e-10 
1.276796497522159e-09 
3.025151400107111e-09 
5.604349002344584e-09 
5.60440984072319e-09 
3.025242755307425e-09 
1.276857531165576e-09 
1.3236641769644175e-09 
2.6532767151985284e-09 
4.310836179829362e-09 
4.310838210865291e-09 
2.6532959995773098e-09 
1.3236986836501208e-09 
-1.2751139220022745e-09 
-4.967384927218391e-09 
-1.1639726243939906e-08 
-1.1641011300202696e-08 
-4.9692094282721005e-09 
-1.2761928115841148e-09 
-1.198822051394835e-08 
-3.3749963253369014e-08 
-6.922019617813368e-08 
-6.92296194256892e-08 
-3.376371427929459e-08 
-1.1996876070688445e-08 
-4.1707046596287795e-08 
-1.1028462875480732e-07 
-2.186860523372715e-07 
-2.1872729131044532e-07 
-1.1034567893968006e-07 
-4.174666901968563e-08 
-1.0600509573171352e-07 
-2.6972817590965956e-07 
-5.229456858255396e-07 
-5.230434534719488e-07 
-2.6987865155592584e-07 
-1.061105117314276e-07 
-2.1150212979516997e-07 
-5.162985937806619e-07 
-9.754877117375152e-07 
-9.753209706186647e-07 
-5.160826081319165e-07 
-2.1140364073538032e-07 
-3.041792143916068e-07 
-6.858701999676374e-07 
-1.224984767086724e-06 
-1.2216385592371244e-06 
-6.810949759244664e-07 
-3.013211820044638e-07 
-1.3690370600713542e-07 
-9.721942376220974e-08 
1.0928353192974109e-07 
1.2982772445920302e-07 
-6.688905861915997e-08 
-1.1733136077995976e-07 
1.026458489722425e-06 
3.1485507603019663e-06 
6.774985590686728e-06 
6.8546880457991946e-06 
3.2658747568461858e-06 
1.1017015725859301e-06 
4.815313539793982e-06 
1.3245826949463441e-05 
2.6777259933468397e-05 
2.6904150354489525e-05 
1.3458802046057165e-05 
4.9874828909391745e-06 
1.4824216318742953e-05 
3.771461022058261e-05 
7.32357322448483e-05 
7.254036611887123e-05 
3.668557507292456e-05 
1.4156878275381002e-05 
3.505751398501862e-05 
8.671805783468174e-05 
0.00015889000602181157 
0.0001504247244240864 
7.508174536487709e-05 
2.8715452240859682e-05 
8.42212873168437e-05 
0.00016659165233192972 
0.00026679925981676746 
0.00022453257879460786 
0.00010055746670357434 
3.6686278104452086e-05 
0.00010072002629282469 
0.00022939988358936306 
0.0002639876112197568 
0.00010305531082965247 
1.9397311968474075e-05 
2.5794838312554456e-06 
0.0003734161567907167 
-1.2667793272300013e-05 
-0.0005515683923407111 
-0.0005903162280656376 
-0.00029558155704750963 
-0.0001149156993098498 
-0.004457887773941 
-0.004234643877342227 
-0.0033207283408344113 
-0.0019071531010667446 
-0.000701238546849377 
-0.00021822759249063295 
-0.009581505601808408 
-0.008199614819371573 
-0.005331190948525542 
-0.0026792866324198113 
-0.0008758849102121827 
-0.00023785441570108935 
</DataArray>
<DataArray type="Float64" Name="Nodal_sigma_xy" NumberOfComponents="1" format="ascii" >
-0.0069756956437050915 
-0.003108219265215617 
0.0020960670870642534 
0.002096067087064091 
-0.0031082192652161058 
-0.006975695643705744 
-0.0035408974936446437 
-0.0023210525817884842 
-0.00040849867139330324 
-0.0004084986713934186 
-0.002321052581788771 
-0.0035408974936449867 
-0.0002901789770745241 
-0.0014665179045053427 
-0.00288839260696177 
-0.0028883926069617994 
-0.0014665179045053676 
-0.00029017897707451503 
-0.0006481543625709115 
-0.0014686832815582675 
-0.0027072395371607215 
-0.0027072395371607067 
-0.0014686832815582179 
-0.0006481543625708409 
-0.0008790795863391022 
-0.0015586084960095728 
-0.002501851710825296 
-0.002501851710825284 
-0.0015586084960095342 
-0.0008790795863390491 
-0.0009464172472681933 
-0.0015837760076138018 
-0.0024430153687565177 
-0.0024430153687565116 
-0.001583776007613771 
-0.0009464172472681436 
-0.0009576975206770897 
-0.0015890964446981356 
-0.002432054794967768 
-0.002432054794967768 
-0.0015890964446981007 
-0.0009576975206770201 
-0.0009585002830911128 
-0.0015896249190477537 
-0.0024311249394110713 
-0.002431124939411087 
-0.0015896249190477485 
-0.0009585002830910712 
-0.0009582306387201809 
-0.001589575153842724 
-0.0024313095268015477 
-0.002431309526801536 
-0.001589575153842708 
-0.0009582306387201731 
-0.0009581037504369333 
-0.001589531486921164 
-0.00243141663786475 
-0.002431416637864732 
-0.001589531486921148 
-0.0009581037504369381 
-0.0009580728865045752 
-0.0015895193364278853 
-0.002431444220324135 
-0.0024314442203241375 
-0.001589519336427919 
-0.0009580728865046376 
-0.0009580683593581647 
-0.001589517201999388 
-0.0024314486183259518 
-0.002431448618325907 
-0.0015895172019993722 
-0.0009580683593582221 
-0.0009580682540485492 
-0.0015895170505328294 
-0.0024314488224475685 
-0.0024314488224473916 
-0.0015895170505325763 
-0.0009580682540483977 
-0.0009580684302415432 
-0.001589517097766775 
-0.0024314486871173397 
-0.0024314486871169693 
-0.0015895170977660968 
-0.0009580684302409274 
-0.0009580684948995652 
-0.0015895171210214554 
-0.0024314486315342846 
-0.002431448631533575 
-0.001589517121020078 
-0.0009580684948982296 
-0.0009580685086707236 
-0.0015895171267041434 
-0.002431448618966487 
-0.0024314486189656367 
-0.0015895171267023276 
-0.0009580685086687931 
-0.0009580685103320201 
-0.0015895171275526344 
-0.0024314486172859187 
-0.002431448617286148 
-0.0015895171275522064 
-0.0009580685103307052 
-0.0009580685102515497 
-0.001589517127571552 