<?xml version="1.0"?>
<VTKFile type="UnstructuredGrid" version="0.1" byte_order="LittleEndian" compressor="vtkZLibDataCompressor">
<UnstructuredGrid>
<Piece NumberOfPoints="306" NumberOfCells="250">
<PointData>
<DataArray type="Float64" Name="displacement" NumberOfComponents="3" format="ascii" >
0.0 0.0  0.
0.0 0.0  0.
0.0 0.0  0.
0.0 0.0  0.
0.0 0.0  0.
0.0 0.0  0.
0.16550689068824623 -0.11051371860734052  0.
0.08606839099389792 -0.03902277153330852  0.
0.028332114584036092 -0.011083814507166148  0.
-0.02833211458404095 -0.011083814507166983  0.
-0.0860683909939029 -0.03902277153331125  0.
-0.1655068906882527 -0.11051371860734614  0.
0.3328787486856216 -0.21827805880182372  0.
0.1927277082610815 -0.15191415197257582  0.
0.06230485248809747 -0.11611308365761781  0.
-0.06230485248810818 -0.11611308365761919  0.
-0.19272770826109262 -0.15191415197258012  0.
-0.3328787486856338 -0.21827805880183082  0.
0.49900883921797606 -0.39244222128214795  0.
0.2951690998898159 -0.32650654132711737  0.
0.0974742748509968 -0.2929924070147434  0.
-0.09747427485101386 -0.29299240701474494  0.
-0.2951690998898332 -0.32650654132712204  0.
-0.49900883921799377 -0.39244222128215556  0.
0.6633855295255106 -0.6321356111475176  0.
0.3944213206924184 -0.5678777898854825  0.
0.13080970248502738 -0.5355816478954702  0.
-0.1308097024850508 -0.5355816478954718  0.
-0.394421320692442 -0.5678777898854873  0.
-0.6633855295255342 -0.6321356111475253  0.
0.8245388588115319 -0.9372787172701156  0.
0.491197886700044 -0.8744467206202068  0.
0.16313640582278635 -0.8430133582680049  0.
-0.16313640582281608 -0.8430133582680065  0.
-0.4911978867000737 -0.8744467206202114  0.
-0.8245388588115616 -0.9372787172701232  0.
0.9821993368254188 -1.3062550134620794  0.
0.585793289515209 -1.244831471457851  0.
0.19467615162827015 -1.2141195571528938  0.
-0.19467615162830612 -1.214119557152895  0.
-0.585793289515245 -1.2448314714578557  0.
-0.9821993368254547 -1.306255013462087  0.
1.1363155022812526 -1.737604872387234  0.
0.6782587594583914 -1.6775779670067539  0.
0.22549809877329766 -1.6475655516947922  0.
-0.22549809877333984 -1.6475655516947938  0.
-0.6782587594584335 -1.6775779670067585  0.
-1.1363155022812945 -1.7376048723872413  0.
1.2868864980895016 -2.229893634133433  0.
0.7685999530861308 -2.1712626544353033  0.
0.25561143399671277 -2.1419474835785666  0.
-0.25561143399676106 -2.141947483578568  0.
-0.7685999530861791 -2.1712626544353077  0.
-1.2868864980895498 -2.2298936341334405  0.
1.4339138716828883 -2.7817019227685447  0.
0.8568160977773845 -2.7244668297974073  0.
0.2850166867294652 -2.695849348785151  0.
-0.2850166867295197 -2.6958493487851523  0.
-0.8568160977774391 -2.7244668297974113  0.
-1.433913871682943 -2.781701922768552  0.
1.577398268892565 -3.3916124186117336  0.
0.9429067064585273 -3.3357732814697565  0.
0.31371352963442156 -3.3078537194789854  0.
-0.313713529634482 -3.3078537194789868  0.
-0.942906706458588 -3.335773281469761  0.
-1.5773982688926256 -3.3916124186117407  0.
1.7173398259331711 -4.0582080662398665  0.
1.0268716436498522 -4.003764903350869  0.
0.34170183920707886 -3.976543321196731  0.
-0.34170183920714553 -3.9765433211967327  0.
-1.026871643649919 -4.003764903350873  0.
-1.7173398259332378 -4.0582080662398745  0.
1.8537385605493144 -4.780071765217476  0.
1.1087108868073354 -4.727024580588971  0.
0.36898158718281315 -4.700500987711123  0.
-0.36898158718288543 -4.7005009877111235  0.
-1.1087108868074083 -4.727024580588974  0.
-1.853738560549387 -4.780071765217482  0.
1.9865944721996525 -5.5557863929768985  0.
1.1884244344707104 -5.5041351869758675  0.
0.39555276996058214 -5.478309583819062  0.
-0.39555276996065897 -5.478309583819062  0.
-1.1884244344707895 -5.504135186975868  0.
-1.9865944721997324 -5.555786392976903  0.
2.11590755990378 -6.383934820761552  0.
1.2660122872105217 -6.333679593344918  0.
0.42141538760390373 -6.30855197960947  0.
-0.42141538760398317 -6.30855197960947  0.
-1.266012287210607 -6.333679593344918  0.
-2.1159075599038695 -6.383934820761556  0.
2.2416778233494834 -7.2630999188521645  0.
1.3414744452864253 -7.214240669985503  0.
0.4465694403070831 -7.189811045550282  0.
-0.44656944030716234 -7.189811045550281  0.
-1.3414744452865166 -7.214240669985501  0.
-2.241677823349588 -7.263099918852169  0.
2.3639052624770045 -8.191864557475826  0.
1.4148109087603509 -8.144401287149826  0.
0.4710149281325691 -8.120669651987443  0.
-0.4710149281326474 -8.120669651987445  0.
-1.4148109087604481 -8.144401287149833  0.
-2.3639052624771333 -8.191864557475844  0.
2.4825898772805135 -9.168811606888426  0.
1.4860216776411874 -9.122744315101473  0.
0.49475185109260883 -9.099710669208307  0.
-0.49475185109269765 -9.099710669208328  0.
-1.4860216776412898 -9.122744315101523  0.
-2.4825898772806747 -9.168811606888488  0.
2.5977316677608404 -10.192523937357826  0.
1.5551067519290735 -10.147852624109818  0.
0.5177802091884222 -10.125516967485929  0.
-0.5177802091885714 -10.125516967486002  0.
-1.5551067519291797 -10.147852624109985  0.
-2.597731667761017 -10.192523937358011  0.
2.7093306339185768 -11.261584419154673  0.
1.6220661316236418 -11.218309084445634  0.
0.5401000024198146 -11.196671417091244  0.
-0.540100002420166 -11.196671417091432  0.
-1.6220661316237497 -11.218309084446059  0.
-2.709330633918666 -11.261584419155094  0.
2.8173867757539863 -12.374575922550004  0.
1.6868998167247609 -12.33269656637992  0.
0.5617112307865914 -12.311756888295136  0.
-0.561711230787459 -12.311756888295516  0.
-1.6868998167248672 -12.332696566380774  0.
-2.8173867757536533 -12.37457592255077  0.
2.921900093267336 -13.530081317815009  0.
1.7496078072324006 -13.4895979401838  0.
0.582613894288616 -13.469356251368627  0.
-0.5826138942905272 -13.46935625136919  0.
-1.7496078072325072 -13.489597940185055  0.
-2.9219000932657644 -13.530081317815924  0.
3.0228705864589935 -14.726683475221273  0.
1.8101901031465497 -14.687596076128788  0.
0.6028079929258955 -14.668052376582942  0.
-0.6028079929293542 -14.668052376583242  0.
-1.8101901031466754 -14.68759607612943  0.
-3.022870586454634 -14.726683475221016  0.
3.1202982553291974 -15.962965265041309  0.
1.8686467044671822 -15.925273844487347  0.
0.6222935266990307 -15.906428134209735  0.
-0.6222935267033376 -15.906428134208028  0.
-1.8686467044673978 -15.92527384448345  0.
-3.1202982553200216 -15.962965265035555  0.
3.2141830998770047 -17.23750955754927  0.
1.9249776111942423 -17.201214115533826  0.
0.6410704956103885 -17.183066394521507  0.
-0.6410704956101108 -17.183066394513084  0.
-1.9249776111947317 -17.201214115514798  0.
-3.2141830998628698 -17.237509557527417  0.
3.304525120097383 -18.54889922302102  0.
1.9791828233276323 -18.51399975954511  0.
0.6591388996663868 -18.496550027791905  0.
-0.6591388996432568 -18.4965500277668  0.
-1.979182823328774 -18.513999759488623  0.
-3.3045251200882126 -18.54889922296277  0.
3.3913243159749342 -19.895717131730898  0.
2.0312623408672574 -19.862213646798633  0.
0.6764987388806392 -19.845461904294837  0.
-0.6764987387891619 -19.84546190423727  0.
-2.0312623408696218 -19.862213646669503  0.
-3.3913243160114463 -19.895717131609292  0.
3.47458068747366 -21.2765461539382  0.
2.081216163813233 -21.244438647560905  0.
0.6931500132747817 -21.228384894299438  0.
-0.6931500130261902 -21.22838489419741  0.
-2.0812161638171576 -21.244438647332966  0.
-3.474580687668572 -21.276546153749724  0.
3.554294234528187 -22.689969159849504  0.
2.129044292166523 -22.659257632051524  0.
0.7090927228655356 -22.643901868054034  0.
-0.7090927223376197 -22.6439018679409  0.
-2.129044292170418 -22.659257631801434  0.
-3.5542942351249622 -22.6899691597195  0.
3.630464957061452 -24.13456901953683  0.
2.174746725930412 -24.10525347035763  0.
0.7243268676082756 -24.09059569574807  0.
-0.7243268667680767 -24.090595695820333  0.
-2.1747467259261195 -24.10525347052979  0.
-3.630464958457681 -24.134569019988636  0.
3.7030928551012985 -25.608928602802802  0.
2.218323465113141 -25.581009032275425  0.
0.7388524472366055 -25.567049247441208  0.
-0.7388524465839564 -25.567049248318064  0.
-2.2183234650760206 -25.581009034263868  0.
-3.7030928576388864 -25.608928605296526  0.
3.772177929158887 -27.11163077906109  0.
2.2597745097309243 -27.085107187114357  0.
0.7526694609080163 -27.071845392975035  0.
-0.7526694626277719 -27.07184539613455  0.
-2.2597745096039086 -27.085107194236254  0.
-3.7721779321574167 -27.111630786771556  0.
3.8377201811499644 -28.641258417552404  0.
2.2990998598064447 -28.616130803728428  0.
0.7657779066063759 -28.603567001984104  0.
-0.7657779169156715 -28.603567010177212  0.
-2.299099859487114 -28.616130822134956  0.
-3.837720180097519 -28.64125843571503  0.
3.8997196161485146 -30.196394388834094  0.
2.3362995153471915 -30.17266275165619  0.
0.7781777805684491 -30.16079694439771  0.
-0.7781778132109686 -30.160796961058715  0.
-2.336299514718234 -30.172662788963486  0.
-3.899719596385119 -30.19639442211168  0.
3.9581762446845965 -31.775621569664576  0.
2.3713734762659318 -31.75328590555222  0.
0.7898690780659464 -31.742118092404525  0.
-0.7898691562421439 -31.742118117132243  0.
-2.371373475384802 -31.753285960609222  0.
-3.9581761704897693 -31.775621609745027  0.
4.01309008292602 -33.377522854975126  0.
2.4043217421721947 -33.35658315714435  0.
0.800851799525504 -33.34611332577278  0.
-0.8008519455822777 -33.34611333917227  0.
-2.404321741877694 -33.35658318588548  0.
-4.013089886242669 -33.37752284422418  0.
4.064461141517253 -35.00068118082936  0.
2.4351443119421265 -34.98113744047715  0.
0.8111259711415367 -34.97136554312192  0.
-0.8111261550307846 -34.97136546911012  0.
-2.4351443153172356 -34.98113727128493  0.
-4.064460733000548 -35.000680930018  0.
4.11228937966526 -36.6436795549657  0.
2.4638411830596305 -36.625531771745656  0.
0.8206916962569613 -36.61645767980266  0.
-0.820691681205994 -36.61645731218566  0.
-2.4638411981850856 -36.62553094113828  0.
-4.112288751586219 -36.643678599894656  0.
4.15657457792697 -38.305101061080244  0.
2.4904123511729894 -38.28834927912835  0.
0.829549255714 -38.27997272162376  0.
-0.8295482431146698 -38.279971623299595  0.
-2.490412394658166 -38.28834680779238  0.
-4.156574161635009 -38.30509851064995  0.
4.1973160631674595 -39.98352871796693  0.
2.5148578117796005 -39.96817311701213  0.
0.8376992463512634 -39.96049366732566  0.
-0.837695243655021 -39.96049114442763  0.
-2.51485790870084 -39.96816745764036  0.
-4.197317637037977 -39.98352338440727  0.
4.234512258733569 -41.67754489123781  0.
2.5371775697386205 -41.6635859655236  0.
0.845142620298365 -41.65660330626514  0.
-0.8451317319707665 -41.65659882446791  0.
-2.5371777353031693 -41.66357595310656  0.
-4.2345207558780436 -41.67753660003857  0.
4.268160290145767 -43.38572964852843  0.
2.557371672385661 -43.37316846185446  0.
0.8518801290385334 -43.3668835095503  0.
-0.8518569718087412 -43.36687851221718  0.
-2.557371837419034 -43.37315740766733  0.
-4.2681863865311644 -43.38572385018432  0.
4.298256722831554 -45.10665719707109  0.
2.5754403016780048 -45.095495447714455  0.
0.857909886139091 -45.08991354017338  0.
-0.8578729308686841 -45.089916585660426  0.
-2.57544011246041 -45.09550274657798  0.
-4.298317890606462 -45.10667673408262  0.
4.3248024806436725 -46.838889849072075  0.
2.591383997242366 -46.82912903737551  0.
0.8632204121254801 -46.82426683039573  0.
-0.8631913697800181 -46.82430505802098  0.
-2.5913823707352983 -46.82921560155267  0.
-4.324913927877905 -46.83899868960381  0.
4.34781924374424 -48.58097252710223  0.
2.6052038822471 -48.57260939032702  0.
0.8677749744909647 -48.568507650816095  0.
-0.867849204792066 -48.56864547386229  0.
-2.605198396112953 -48.57292080937313  0.
-4.347951458723677 -48.58130952849593  0.
4.367389367350722 -50.33143657809873  0.
2.616900342580608 -50.3244558755427  0.
0.871483313872547 -50.321193073284185  0.
-0.8719327920339249 -50.3215527593037  0.
-2.61688651697144 -50.32526072445013  0.
-4.36734635827587 -50.33223368918948  0.
4.383749120638463 -52.088864865069084  0.
2.626459147014899 -52.083202364468114  0.
0.8741618167151227 -52.080920592224786  0.
-0.8755871356533278 -52.081643704744906  0.
-2.6264351591267334 -52.08484287333809  0.
-4.382884180290117 -52.09032022438394  0.
4.397428899019029 -53.852015352936  0.
2.6337825940464112 -53.847639808764974  0.
0.8755265884371426 -53.84642911904883  0.
-0.8789381804699379 -53.84753364526749  0.
-2.6337618096551316 -53.85002796288569  0.
-4.39419127655589 -53.85382121063831  0.
4.409723695684191 -55.62091151251702  0.
2.6384695661351647 -55.61712968982613  0.
0.8753208271915895 -55.61717241080491  0.
-0.881602216054578 -55.61749841264286  0.
-2.638661167908365 -55.6184797026682  0.
-4.400928921579984 -55.620338483946064  0.
4.421816139590873 -57.39630343295466  0.
2.639196286379538 -57.395468762926555  0.
0.8754013656064414 -57.39195583306838  0.
-0.8824420905766055 -57.38839482001572  0.
-2.640905220154788 -57.38675353174898  0.
-4.403480588313683 -57.386750445042175  0.
4.436924211540677 -59.21523320871753  0.
2.6449157154955736 -59.181379419294174  0.
0.8791236652604064 -59.162858671213726  0.
-0.8808868703692389 -59.15401751516922  0.
-2.6410467899195744 -59.15110247037146  0.
-4.40382915247612 -59.15074050462277  0.
</DataArray>
<DataArray type="Float64" Name="Nodal_sigma_xx" NumberOfComponents="1" format="ascii" >
0.08014342447623066 
0.05871072233281591 
0.018639010094699753 
-0.018639010094703045 
-0.0587107223328194 
-0.08014342447623435 
0.07824862113881528 
0.05855953717278554 
0.019435226603377053 
-0.01943522660338047 
-0.058559537172789014 
-0.07824862113881878 
0.07584940707880633 
0.057622085382274965 
0.0196973818428709 
-0.019697381842874468 
-0.05762208538227839 
-0.07584940707880965 
0.0746217228138207 
0.05616888354591574 
0.01885802213900448 
-0.01885802213900805 
-0.05616888354591919 
-0.07462172281382409 
0.07312607943884403 
0.05488800479312193 
0.018324965073699035 
-0.018324965073702553 
-0.05488800479312539 
-0.07312607943884747 
0.0715613949401265 
0.0536753047106992 
0.01789460724063506 
-0.017894607240638558 
-0.05367530471070266 
-0.07156139494012997 
0.06997406028305689 
0.05248014007000169 
0.017493109928472365 
-0.017493109928475845 
-0.05248014007000516 
-0.06997406028306041 
0.06838376628885395 
0.05128746745033705 
0.01709558430590919 
-0.017095584305912636 
-0.051287467450340504 
-0.06838376628885748 
0.06679329337572483 
0.05009487093210162 
0.016698224244238308 
-0.01669822424424184 
-0.050094870932105115 
-0.06679329337572834 
0.06520292770880487 
0.04890217835144518 
0.01630071449704186 
-0.016300714497045354 
-0.04890217835144861 
-0.06520292770880828 
0.06361260231498601 
0.047709450501773124 
0.015903149344279267 
-0.01590314934428269 
-0.04770945050177648 
-0.06361260231498927 
0.062022286198785456 
0.046516715034204265 
0.01550557193481072 
-0.015505571934814145 
-0.04651671503420761 
-0.06202228619878858 
0.06043197126824285 
0.04532397864092581 
0.01510799300680358 
-0.015107993006806906 
-0.04532397864092923 
-0.06043197126824625 
0.05884165631967332 
0.04413124228610629 
0.014710414126269002 
-0.014710414126271871 
-0.04413124228610997 
-0.05884165631967747 
0.057251341307938526 
0.04293850598788124 
0.01431283533391166 
-0.01431283533391357 
-0.042938505987885206 
-0.05725134130794389 
0.05566102627581269 
0.04174576970704904 
0.013915256569142685 
-0.013915256569143475 
-0.041745769707053376 
-0.05566102627581983 
0.05407071123966928 
0.040553033429494706 
0.01351767780966021 
-0.013517677809660103 
-0.04055303342949933 
-0.05407071123967816 
0.052480396203118854 
0.039360297152242985 
0.013120099050682378 
-0.013120099050685084 
-0.03936029715224615 
-0.0524803962031245 
0.050890081166625585 
0.03816756087494417 
0.012722520291623383 
-0.012722520291643474 
-0.03816756087494011 
-0.05089008116660926 
0.04929976613019188 
0.036974824597620866 
0.012324941532496286 
-0.012324941532572586 
-0.03697482459759629 
-0.049299766130104686 
0.04770945109381891 
0.035782088320302316 
0.011927362773317412 
-0.011927362773527083 
-0.03578208832023095 
-0.04770945109355863 
0.0461191360575263 
0.03458935204300053 
0.011529784014079869 
-0.011529784014536183 
-0.034589352042846855 
-0.046119136056936356 
0.044528821021286 
0.033396615765702235 
0.011132205254812469 
-0.011132205255575067 
-0.03339661576545949 
-0.044528821020262385 
0.04293850598484915 
0.03220387948832605 
0.010734626495721173 
-0.010734626496437426 
-0.032203879488149505 
-0.04293850598378475 
0.04134819094735058 
0.031011143210618233 
0.010337047737492437 
-0.010337047736437217 
-0.03101114321117098 
-0.04134819094836854 
0.03975787590659262 
0.02981840693197735 
0.009939468981826589 
-0.009939468973874464 
-0.029818406935126232 
-0.03975787591621245 
0.038167560858195226 
0.028625670651293074 
0.009541890232024128 
-0.009541890205448673 
-0.028625670661125154 
-0.03816756089169564 
0.036577245795884845 
0.027432934367203277 
0.009144311492583625 
-0.009144311426660865 
-0.027432934390529407 
-0.036577245881091534 
0.03498693071705608 
0.026240198079968857 
0.008746732764547642 
-0.008746732636468432 
-0.02624019812307843 
-0.034986930887006336 
0.03339661564368118 
0.025047461797691663 
0.008349154028827126 
-0.008349153853960418 
-0.02504746185067045 
-0.033396615887467965 
0.03180630067779705 
0.023854725551671598 
0.007951575203103793 
-0.00795157516145496 
-0.023854725542005427 
-0.031806300780439486 
0.030215986116853215 
0.0226619894260998 
0.007553996054463282 
-0.007553996791867614 
-0.022661989112892435 
-0.03021598526846947 
0.02862567263130102 
0.02146925359822184 
0.0071564160704376345 
-0.00715641925767372 
-0.021469252386090883 
-0.028625668681101717 
0.027035361383141956 
0.020276518346480865 
0.006758834391601772 
-0.00675884341832525 
-0.020276515083175167 
-0.027035349856316063 
0.02544505358432655 
0.019083783875392755 
0.0063612502074984175 
-0.006361270084332564 
-0.019083776999663352 
-0.0254450275821237 
0.023854748103524018 
0.017891049567641606 
0.005963664700998964 
-0.005963698072635303 
-0.017891038752762777 
-0.023854702990016213 
0.022264434108426025 
0.016698311876249372 
0.005566086833676811 
-0.0055661184191343385 
-0.01669830388789154 
-0.0222643869142335 
0.02067407380406995 
0.015505559701972624 
0.005168546593234556 
-0.005168501121783593 
-0.015505583495270966 
-0.020674117160380936 
0.019083570964977918 
0.014312766673721769 
0.004771118431174959 
-0.004770771678484085 
-0.014312903913665381 
-0.0190839899904783 
0.01749273341978444 
0.013119884012194771 
0.004373947170887153 
-0.004372785206597922 
-0.013120313880780825 
-0.017494197611196603 
0.015901284772405773 
0.011926851784566242 
0.0039772313293437 
-0.003974343828628684 
-0.011927873715548393 
-0.015905015911878734 
0.014309104203571439 
0.010733682319067897 
0.0035810227191425555 
-0.0035754017548717894 
-0.010735574820929957 
-0.014316561128395584 
0.012717136015572134 
0.00954073654237193 
0.0031845069696468387 
-0.003176802831671192 
-0.009543074977433372 
-0.012727867421402406 
0.011129793191494371 
0.00834941506700371 
0.0027841345863231295 
-0.0027821868791265123 
-0.008349031182069757 
-0.01113445637575328 
0.009560149130733891 
0.0071633804064372706 
0.0023697147825898477 
-0.002401735351298435 
-0.007149789347956896 
-0.009523290110277877 
0.008038014399719611 
0.005989955247611173 
0.0019179117975998868 
-0.0020570170033170987 
-0.0059369189974609726 
-0.007865876488590712 
0.006621180584719852 
0.004836170844125336 
0.0013840264838788962 
-0.0017782540577102723 
-0.004694616776240121 
-0.006115833572832728 
0.0053752377963359466 
0.0036945814838401543 
0.0007058828909678371 
-0.0015720506119430307 
-0.0033935017891360496 
-0.004245061743794726 
0.004354061085976564 
0.002455208886792988 
-0.00014019274617328953 
-0.0012759221878782547 
-0.0020368377968145498 
-0.0023585733978285814 
0.00264612767554999 
0.0011089078956638431 
-0.0005089765949799053 
-0.0006874116620019953 
-0.0008140872427946019 
-0.0008429924673227204 
0.0013861311892586446 
0.00043179971563695645 
-0.0004151738552679 
-0.00030772379747148455 
-0.0002778917393605641 
-0.0002481518363292273 
</DataArray>
<DataArray type="Float64" Name="Nodal_sigma_yy" NumberOfComponents="1" format="ascii" >
0.01941668974762612 
0.014969585926777135 
0.005261241052963786 
-0.005261241052964909 
-0.014969585926778193 
-0.01941668974762714 
0.009174160807610866 
0.007729471334419158 
0.0031423909306135182 
-0.003142390930614306 
-0.007729471334419797 
-0.009174160807611395 
-0.0005375382325852138 
0.0001006946283032958 
0.00036946374459582206 
-0.0003694637445960957 
-0.00010069462830341854 
0.000537538232585193 
-6.751414788697986e-05 
-0.0002229126303321437 
-0.0001891555563886748 
0.00018915555638863448 
0.00022291263033212636 
6.75141478869417e-05 
-7.336844957640462e-05 
-9.662039294063094e-05 
-5.993616815243134e-05 
5.993616815245541e-05 
9.662039294064048e-05 
7.336844957636472e-05 
-1.1079936638515656e-05 
-2.038756628324704e-05 
-1.4847597964001084e-05 
1.4847597964018106e-05 
2.0387566283267856e-05 
1.1079936638475757e-05 
-1.8327871417599811e-06 
-2.739359032619907e-06 
-1.8229654617671841e-06 
1.822965461781604e-06 
2.739359032625545e-06 
1.8327871416333463e-06 
1.0488863569184381e-07 
6.054134719371204e-08 
8.097029323070326e-09 
-8.097029320901922e-09 
-6.054134718200266e-08 
-1.0488863577164109e-07 
9.173394801068047e-08 
1.420889927015133e-07 
9.622201864695028e-08 
-9.622201879158285e-08 
-1.4208899272428153e-07 
-9.173394796384293e-08 
3.043833107785332e-08 
4.6263100879698205e-08 
3.10439352772373e-08 
-3.104393539303009e-08 
-4.626310080683982e-08 
-3.043833095468795e-08 
5.485395887516731e-09 
8.971469704719542e-09 
6.2287717641595734e-09 
-6.228771816526538e-09 
-8.971469620368613e-09 
-5.485395601287357e-09 
5.264137875604646e-10 
9.069425284564947e-10 
6.437356505598242e-10 
-6.437358594855828e-10 
-9.069425132776643e-10 
-5.264132758170392e-10 
-8.837162598918091e-11 
-1.1261647842562839e-10 
-6.843084611332997e-11 
6.843020285618104e-11 
1.1261632316787729e-10 
8.83718792588084e-11 
-5.2963274391193416e-11 
-8.024883361990032e-11 
-5.3767479563700954e-11 
5.376647027989859e-11 
8.024827178633454e-11 
5.296303673407721e-11 
-1.410149601255295e-11 
-2.206447828265179e-11 
-1.5014039599255125e-11 
1.5012881888175345e-11 
2.2063803908900503e-11 
1.4101225395690697e-11 
-2.2897482521155865e-12 
-3.748789256449725e-12 
-2.604106112604615e-12 
2.6037159082427375e-12 
3.74892499856172e-12 
2.2900362162125987e-12 
-1.2471013804971065e-13 
-2.4441321362644874e-13 
-1.8039638793182489e-13 
1.8630268768665692e-13 
2.4761226055658447e-13 
1.2594265907939217e-13 
6.6942111576207e-14 
9.759771116280014e-14 
7.182991181020615e-14 
-4.5752681157584796e-14 
-8.458077987993917e-14 
-6.224968457368973e-14 
3.50717718755611e-14 
6.076259287390862e-14 
6.439689276618865e-14 
7.750581860338501e-15 
-2.3821873293417006e-14 
-2.0804538647389847e-14 
2.2570487145934237e-14 
4.9869613646946753e-14 
8.272359576858013e-14 
6.925932266935164e-14 
2.988451500152145e-14 
9.528836053540601e-15 
2.8026192477881295e-14 
6.61120463929521e-14 
1.2102612748782215e-13 
1.1944687860337977e-13 
6.409824927777752e-14 
2.7157096016416915e-14 
2.7840577065951777e-14 
5.63507573936306e-14 
9.162148036784279e-14 
9.159697739874462e-14 
5.6719169291841176e-14 
2.862640680056927e-14 
-2.832283019227333e-14 
-1.0867825736560199e-13 
-2.5437020111790387e-13 
-2.54922927385437e-13 
-1.0915335475758514e-13 
-2.8167572441173405e-14 
-2.5965601196942245e-13 
-7.308812843137558e-13 
-1.499195895465072e-12 
-1.499382595079174e-12 
-7.310692849704648e-13 
-2.596586140546364e-13 
-9.007985329878565e-13 
-2.3825750400385814e-12 
-4.7235823650952635e-12 
-4.723273801156974e-12 
-2.3821467801804497e-12 
-9.005591411481717e-13 
-2.2861469661794587e-12 
-5.817109164155121e-12 
-1.1274555372425485e-11 
-1.1274047098447024e-11 
-5.81679040871641e-12 
-2.2865260032589596e-12 
-4.549934214115314e-12 
-1.1106924407977559e-11 
-2.098283149337167e-11 
-2.0982792245253026e-11 
-1.1106971896032714e-11 
-4.550107686462912e-12 
-6.497717294773331e-12 
-1.464499290067256e-11 
-2.6193337185646468e-11 
-2.6193990309035173e-11 
-1.4645440025648493e-11 
-6.497305297947786e-12 
-2.6263271071802485e-12 
-1.5208080021006376e-12 
3.0665225675581553e-12 
3.065729798929634e-12 
-1.5213527052720943e-12 
-2.625830976266119e-12 
2.3053389058835805e-11 
6.968434943660506e-11 
1.479529192303236e-10 
1.4795229321198922e-10 
6.96837229845898e-11 
2.3053388191474067e-11 
1.0649721989691718e-10 
2.8869243204766165e-10 
5.803535014755126e-10 
5.803540402155721e-10 
2.886921771517309e-10 
1.0649563262493666e-10 
3.098242279050978e-10 
8.026484723177782e-10 
1.5728222317753192e-09 
1.5728270886757913e-09 
8.026541692580935e-10 
3.0982590798478427e-10 
6.972330200173682e-10 
1.7400623403100723e-09 
3.3338937834915573e-09 
3.333913940436247e-09 
1.7400917086364195e-09 
6.972514427806831e-10 
1.2058623474753283e-09 
2.8570872909281647e-09 
5.292997551673917e-09 
5.2930547860560815e-09 
2.857174061796433e-09 
1.2059214204475366e-09 
1.250125102828653e-09 
2.5058718269898098e-09 
4.0713468467336485e-09 
4.071349206391257e-09 
2.505892230807334e-09 
1.2501611911484856e-09 
-1.2042746509212388e-09 
-4.6914201746496575e-09 
-1.0993075259308925e-08 
-1.099428696170533e-08 
-4.6931397856483925e-09 
-1.205290468125897e-09 
-1.1322205628345322e-08 
-3.187496527151407e-08 
-6.537463029121916e-08 
-6.538352741329904e-08 
-3.188795185326762e-08 
-1.1330384547692668e-08 
-3.9389988008321775e-08 
-1.0415770407333578e-07 
-2.0653682548966437e-07 
-2.065757724195469e-07 
-1.0421536344301912e-07 
-3.942741288792337e-08 
-1.0011592480995563e-07 
-2.5474327668367856e-07 
-4.938931457935399e-07 
-4.939854819652347e-07 
-2.5488539290633144e-07 
-1.002154849118718e-07 
-1.9975201377220655e-07 
-4.876153391775314e-07 
-9.212939484404991e-07 
-9.211364716956387e-07 
-4.874113527448599e-07 
-1.996589943965843e-07 
-2.872803716931667e-07 
-6.477663001673052e-07 
-1.1569300566164795e-06 
-1.1537697498992044e-06 
-6.432563663507154e-07 
-2.8458111749453743e-07 
-1.2929794612108816e-07 
-9.181834360465517e-08 
1.032122249406195e-07 
1.2261507318466868e-07 
-6.317299973564693e-08 
-1.1081295487117004e-07 
9.69433014572519e-07 
2.9736312743581183e-06 
6.3985975045247414e-06 
6.473872043193492e-06 
3.0844372709893687e-06 
1.0404959304975182e-06 
4.547796122150987e-06 
1.2509947676355533e-05 
2.5289634384237037e-05 
2.5409475335845277e-05 
1.271109082426298e-05 
4.7104005147494046e-06 
1.4000648748163386e-05 
3.5619354098316883e-05 
6.91670804545525e-05 
6.851034578146919e-05 
3.464748757193775e-05 
1.3370385041571722e-05 
3.3109874316194447e-05 
8.190038795312697e-05 
0.0001500627834653725 
0.00014206779529117228 
7.091053728984782e-05 
2.7120149338036564e-05 
7.954232690837314e-05 
0.00015733656053380592 
0.0002519770787153682 
0.00021205854663825118 
9.497094077474055e-05 
3.464815154447648e-05 
9.512446927721662e-05 
0.00021665544561312307 
0.0002493216328198716 
9.73300157818283e-05 
1.831968352631965e-05 
2.436179179696391e-06 
0.0003526708147467689 
-1.1964026978879088e-05 
-0.0005209257038757483 
-0.0005575208820632158 
-0.0002791603594340958 
-0.00010853149378872949 
-0.004210227342057977 
-0.003999385884156925 
-0.003136243433009713 
-0.0018012001510090262 
-0.0006622808498024932 
-0.0002061038373504874 
-0.009049199735045636 
-0.007744080662738545 
-0.005035013673606238 
-0.002530437375064547 
-0.0008272246374203575 
-0.00022464028149264345 
</DataArray>
<DataArray type="Float64" Name="Nodal_sigma_xy" NumberOfComponents="1" format="ascii" >
-0.0065881569968327764 
-0.0029355404171481953 
0.0019796189155606705 
0.001979618915560509 
-0.002935540417148679 
-0.006588156996833421 
-0.003344180966220056 
-0.0021921052161336645 
-0.00038580430076041257 
-0.0003858043007605301 
-0.0021921052161339573 
-0.003344180966220407 
-0.0002740579227926507 
-0.0013850446875884608 
-0.002727926351019583 
-0.0027279263510196134 
-0.001385044687588493 
-0.0002740579227926547 
-0.0006121457868725566 
-0.001387089765916217 
-0.002556837340651928 
-0.0025568373406519127 
-0.0013870897659161844 
-0.0006121457868725215 
-0.0008302418315425136 
-0.0014720191351202286 
-0.002362859949112914 
-0.002362859949112898 
-0.001472019135120205 
-0.0008302418315424983 
-0.0008938385113088591 
-0.0014957884516353308 
-0.0023072922927146328 
-0.0023072922927146206 
-0.0014957884516353282 
-0.0008938385113088788 
-0.0009044921028616782 
-0.0015008133088816277 
-0.0022969406396919105 
-0.002296940639691915 
-0.0015008133088816535 
-0.0009044921028617219 
-0.0009052502673638689 
-0.0015013124235452014 
-0.0022960624427772664 
-0.002296062442777259 
-0.00150131242354521 
-0.0009052502673639014 
-0.0009049956032357924 
-0.001501265423073789 
-0.002296236775312716 
-0.0022962367753126866 
-0.0015012654230737526 
-0.0009049956032357794 
-0.000904875764301559 
-0.0015012241820922569 
-0.0022963379357612583 
-0.002296337935761253 
-0.0015012241820922384 
-0.0009048757643015328 
-0.0009048466150321677 
-0.0015012127066264384 
-0.002296363985861806 
-0.00229636398586178 
-0.0015012127066264126 
-0.0009048466150321677 
-0.000904842339393975 
-0.001501210690777281 
-0.0022963681395300754 
-0.002296368139530031 
-0.001501210690777216 
-0.0009048423393939336 
-0.0009048422399348802 
-0.0015012105477255505 
-0.0022963683323116665 
-0.002296368332311515 
-0.0015012105477252532 
-0.0009048422399345883 
-0.0009048424063391974 
-0.0015012105923353758 
-0.0022963682044999743 
-0.0022963682044996143 
-0.001501210592334755 
-0.0009048424063386757 
-0.000904842467405095 
-0.0015012106142981072 
-0.0022963681520047586 
-0.0022963681520040075 
-0.0015012106142967717 
-0.0009048424674039264 
-0.0009048424804113786 
-0.001501210619665232 
-0.002296368140135097 
-0.002296368140134085 
-0.0015012106196632287 
-0.0009048424804093962 
-0.000904842481980226 
-0.0015012106204663977 
-0.0022963681385478017 
-0.0022963681385480103 
-0.0015012106204659857 
-0.0009048424819789844 