<?xml version="1.0"?>
<VTKFile type="UnstructuredGrid" version="0.1" byte_order="LittleEndian" compressor="vtkZLibDataCompressor">
<UnstructuredGrid>
<Piece NumberOfPoints="306" NumberOfCells="250">
<PointData>
<DataArray type="Float64" Name="displacement" NumberOfComponents="3" format="ascii" >
0.0 0.0  0.
0.0 0.0  0.
0.0 0.0  0.
0.0 0.0  0.
0.0 0.0  0.
0.0 0.0  0.
0.029207098356806703 -0.01950242093074844  0.
0.015188539587186398 -0.0068863714470717464  0.
0.004999784926602379 -0.0019559672659791583  0.
-0.0049997849266072356 -0.0019559672659799927  0.
-0.01518853958719138 -0.006886371447074473  0.
-0.029207098356813184 -0.019502420930754064  0.
0.05874330859169366 -0.03851965743569908  0.
0.03401077204613545 -0.026808379759927965  0.
0.01099497396850473 -0.020490544174924387  0.
-0.010994973968515417 -0.020490544174925757  0.
-0.0340107720461466 -0.02680837975993223  0.
-0.058743308591705776 -0.03851965743570615  0.
0.08806038339157449 -0.06925450963817414  0.
0.05208866468653227 -0.05761880141079519  0.
0.017201342620790313 -0.051704542414484064  0.
-0.017201342620807303 -0.051704542414485626  0.
-0.052088664686549595 -0.057618801410799836  0.
-0.08806038339159226 -0.06925450963818175  0.
0.11706803462236695 -0.11155334314391435  0.
0.06960376247525664 -0.10021372762706532  0.
0.023084065144451018 -0.0945144084523482  0.
-0.023084065144474343 -0.09451440845234976  0.
-0.06960376247528013 -0.10021372762706998  0.
-0.1170680346223906 -0.11155334314392201  0.
0.1455068574375953 -0.16540212657742165  0.
0.08668198000604194 -0.1543141271685961  0.
0.02878877749818077 -0.1487670632240815  0.
-0.028788777498210356 -0.14876706322408303  0.
-0.08668198000607158 -0.15431412716860074  0.
-0.145506857437625 -0.16540212657742928  0.
0.1733292947342087 -0.23051559061142501  0.
0.10337528638521476 -0.2196761420224266  0.
0.034354614993273115 -0.21425639243919103  0.
-0.0343546149933089 -0.21425639243919256  0.
-0.10337528638525056 -0.2196761420224312  0.
-0.17332929473424452 -0.23051559061143262  0.
0.20052626510880966 -0.306636153951304  0.
0.11969272225756528 -0.2960431706488506  0.
0.03979378213651967 -0.29074686206437955  0.
-0.0397937821365616 -0.29074686206438105  0.
-0.11969272225760724 -0.29604317064885516  0.
-0.20052626510885158 -0.30663615395131155  0.
0.22709761731030445 -0.3935106413184434  0.
0.13563528583895354 -0.3831639978422883  0.
0.04510790011712815 -0.377990732396975  0.
-0.04510790011717619 -0.37799073239697656  0.
-0.13563528583900158 -0.3831639978422927  0.
-0.22709761731035255 -0.39351064131845087  0.
0.25304362441505585 -0.4908885746071715  0.
0.1512028407844896 -0.48078826408283964  0.
0.05029706236408968 -0.47573812037478835  0.
-0.05029706236414383 -0.4757381203747898  0.
-0.15120284078454374 -0.4807882640828442  0.
-0.2530436244151101 -0.490888574607179  0.
0.2783644003932672 -0.5985198385796926  0.
0.16639530114000428 -0.5886658732016844  0.
0.05536121111202777 -0.5837388916738958  0.
-0.05536121111208804 -0.5837388916738974  0.
-0.16639530114006454 -0.5886658732016891  0.
-0.2783644003933276 -0.5985198385797004  0.
0.3030599692828162 -0.7161543646319236  0.
0.181212642997314 -0.7065467476515012  0.
0.06030032456603011 -0.7017429390360602  0.
-0.06030032456609659 -0.7017429390360619  0.
-0.18121264299738044 -0.7065467476515059  0.
-0.3030599692828826 -0.7161543646319314  0.
0.32713033421510407 -0.8435420762164276  0.
0.19565486237806162 -0.8341808083407993  0.
0.06511439773822192 -0.8295001743035275  0.
-0.06511439773829449 -0.8295001743035291  0.
-0.1956548623781342 -0.8341808083408037  0.
-0.3271303342151765 -0.843542076216435  0.
0.3505754950945997 -0.9804328928800865  0.
0.20972195902455315 -0.9713179741740137  0.
0.06980342999312518 -0.9667605147933971  0.
-0.0698034299932036 -0.9667605147933982  0.
-0.20972195902463187 -0.9713179741740177  0.
-0.35057549509467856 -0.9804328928800937  0.
0.3733954517482906 -1.1265767330776197  0.
0.2234139330374729 -1.1177081635335  0.
0.0743674213419489 -1.1132738787566532  0.
-0.07436742134203281 -1.113273878756654  0.
-0.22341393303755774 -1.117708163533504  0.
-0.37339545174837613 -1.1265767330776266  0.
0.39559020412108037 -1.2817235150938602  0.
0.23673078446264256 -1.2731012947056193  0.
0.07880637181898233 -1.2687901845111658  0.
-0.07880637181907117 -1.2687901845111669  0.
-0.2367307844627335 -1.2731012947056226  0.
-0.3955902041211735 -1.281723515093867  0.
0.4171597522024234 -1.4456231572041762  0.
0.2496725133109909 -1.4372472859701706  0.
0.0831202814352458 -1.4330593503532774  0.
-0.0831202814353394 -1.4330593503532791  0.
-0.24967251331108764 -1.4372472859701757  0.
-0.41715975220252577 -1.4456231572041853  0.
0.43810409599129085 -1.6180255776890171  0.
0.2622391195840866 -1.6098960556089623  0.
0.08730915019290061 -1.6058312945689903  0.
-0.0873091501930009 -1.6058312945689952  0.
-0.26223911958418916 -1.6098960556089748  0.
-0.4381040959914039 -1.6180255776890342  0.
0.45842323548782943 -1.7986806948309462  0.
0.27443060328195407 -1.7907975219048238  0.
0.09137297809216186 -1.7868559354417834  0.
-0.09137297809227765 -1.7868559354417977  0.
-0.2744306032820622 -1.7907975219048566  0.
-0.45842323548795005 -1.7986806948309846  0.
0.47811717069214343 -1.9873384269130168  0.
0.2862469644045287 -1.9797016031408312  0.
0.09531176513299543 -1.9758831912547619  0.
-0.09531176513315175 -1.975883191254796  0.
-0.286246964404642 -1.9797016031409096  0.
-0.47811717069225346 -1.9873384269130974  0.
0.49718590160427983 -2.1837486922183524  0.
0.2976882029517873 -2.176358217600101  0.
0.09912551131536705 -2.1726629802910216  0.
-0.0991255113156192 -2.17266298029109  0.
-0.2976882029519051 -2.1763582176002556  0.
-0.49718590160431997 -2.1837486922184937  0.
0.5156294282242857 -2.3876614090301045  0.
0.30875431892372457 -2.380517283565773  0.
0.1028142166392525 -2.376945220833684  0.
-0.10281421663969349 -2.3769452208337842  0.
-0.3087543189238471 -2.380517283565998  0.
-0.5156294282241118 -2.3876614090302715  0.
0.5334477505522258 -2.5988264956314913  0.
0.31944531232033874 -2.591928719321053  0.
0.10637788110465304 -2.5884798311659045  0.
-0.10637788110537183 -2.5884798311659583  0.
-0.31944531232046924 -2.59192871932117  0.
-0.5334477505515645 -2.5988264956314513  0.
0.5506408685881427 -2.816993870305897  0.
0.3297611831416253 -2.8103424431493167  0.
0.10981650471167499 -2.8070167295709156  0.
-0.10981650471254777 -2.8070167295706154  0.
-0.32976118314177594 -2.810342443148632  0.
-0.5506408685866359 -2.816993870304887  0.
0.56720878233187 -3.0419134513369954  0.
0.3397019313875742 -3.035508373334272  0.
0.1131300874607356 -3.0323058343320994  0.
-0.11313008746080376 -3.0323058343306144  0.
-0.33970193138777754 -3.035508373330917  0.
-0.5672087823294927 -3.041913451333144  0.
0.5831514917825196 -3.273335157008762  0.
0.34926755705816864 -3.267176428160074  0.
0.11631862935296805 -3.264097063733039  0.
-0.11631862934900761 -3.2640970637286095  0.
-0.3492675570584913 -3.267176428150109  0.
-0.5831514917810227 -3.2733351569984865  0.
0.5984689969373748 -3.5110089056049003  0.
0.3584580601533918 -3.5050965259109743  0.
0.11938213039077436 -3.5021403360573657  0.
-0.11938213037475678 -3.502140336047207  0.
-0.3584580601539343 -3.50509652588819  0.
-0.5984689969439431 -3.5110089055834455  0.
0.6131612977900824 -3.7546846154064637  0.
0.3672734406732642 -3.7490185848692983  0.
0.1223205905779728 -3.7461855695878654  0.
-0.12232059053423311 -3.7461855695698616  0.
-0.3672734406740861 -3.749018584829077  0.
-0.6131612978246078 -3.7546846153732085  0.
0.6272283943291066 -4.004112204685201  0.
0.37571369861795567 -3.998692523309092  0.
0.1251340099175141 -3.9959826826036555  0.
-0.12513400982448591 -3.995982682583692  0.
-0.37571369861877635 -3.9986925232649613  0.
-0.6272283944345531 -4.004112204662265  0.
0.640670286540848 -4.259041591689116  0.
0.3837788339880465 -4.2538682594810275  0.
0.1278223884015234 -4.25128159337346  0.
-0.1278223882533902 -4.251281593386214  0.
-0.3837788339874261 -4.253868259511411  0.
-0.6406702867873788 -4.2590415917688516  0.
0.6534869744302204 -4.519222694618669  0.
0.39146884678499083 -4.514295711584433  0.
0.1303857259829896 -4.511832220143103  0.
-0.13038572586795716 -4.511832220297843  0.
-0.39146884677858096 -4.514295711935337  0.
-0.6534869748781711 -4.519222695058745  0.
0.6656784580874289 -4.784405431605687  0.
0.39878373701164993 -4.779724797732738  0.
0.13282402251323439 -4.77738448111992  0.
-0.13282402281686545 -4.777384481677482  0.
-0.39878373698937997 -4.779724798989547  0.
-0.6656784586167255 -4.784405432966361  0.
0.6772447378505463 -5.054339720751466  0.
0.40572350467202734 -5.049905435959006  0.
0.13513727763647013 -5.047688294474716  0.
-0.13513727945590628 -5.04768829592056  0.
-0.40572350461582307 -5.049905439207219  0.
-0.6772447376649686 -5.05433972395664  0.
0.6881858146149825 -5.32877548038966  0.
0.4122881497674445 -5.324587544417095  0.
0.13732549068859692 -5.322493578430307  0.
-0.1373254964491932 -5.322493581370485  0.
-0.41228814965660354 -5.324587551000738  0.
-0.6881858111274757 -5.328775486262179  0.
0.6985016902389831 -5.607462629948225  0.
0.4184776722825075 -5.603521042163697  0.
0.13938866083521 -5.601550251608224  0.
-0.13938867463116472 -5.601550255971939  0.
-0.4184776721271687 -5.60352105187964  0.
-0.6985016771459329 -5.607462637021248  0.
0.7081923675756913 -5.89015109206209  0.
0.4242920721483097 -5.886455851268429  0.
0.14132678815159874 -5.884608233967566  0.
-0.14132681392648144 -5.884608236332182  0.
-0.4242920720964968 -5.886455856340396  0.
-0.7081923328670221 -5.890151090164867  0.
0.7172578485035419 -6.176590796624835  0.
0.4297313491665242 -6.173141901268567  0.
0.14313987726030653 -6.171417448794118  0.
-0.1431399097115114 -6.171417435733212  0.
-0.4297313497622925 -6.173141871411119  0.
-0.7172577764125192 -6.17659075236401  0.
0.7256981258237645 -6.466531686178534  0.
0.43479550289313407 -6.463329136198531  0.
0.14482794639831867 -6.461727825855652  0.
-0.14482794374242958 -6.461727760982066  0.
-0.4347955055624956 -6.463328989620761  0.
-0.7256980149864501 -6.466531517636588  0.
0.7335131608111118 -6.7597237166695585  0.
0.43948453256018893 -6.756767519854524  0.
0.14639104512602777 -6.755289303824305  0.
-0.1463908664321949 -6.755289110002394  0.
-0.4394845402342099 -6.756767083736413  0.
-0.7335130873479905 -6.759723266593627  0.
0.7407028346770679 -7.055916832590954  0.
0.44379843737311286 -7.0532070206577595  0.
0.14782927876789478 -7.051851823654266  0.
-0.14782857240990327 -7.051851378436968  0.
-0.4437984544770298 -7.053206021945096  0.
-0.7407031124190923 -7.055915891374547  0.
0.7472668691887236 -7.35486086316838  0.
0.4477372181894037 -7.352397523336464  0.
0.1491428153467918 -7.35116528934968  0.
-0.1491408938773871 -7.351164498444287  0.
-0.44773724740684817 -7.352395756439341  0.
-0.7472683686849775 -7.354859400015576  0.
0.7532047570849847 -7.656305232102227  0.
0.45130088336240504 -7.654088552100941  0.
0.15033178747740727 -7.652979442870796  0.
-0.15032770090761735 -7.65297856098848  0.
-0.4513009124861146 -7.654086601362035  0.
-0.7532093623296391 -7.656304208865032  0.
0.7585158922648224 -7.959998328904076  0.
0.45448946500222576 -7.9580286084293785  0.
0.15139586225985627 -7.957043565922131  0.
-0.15138934074172467 -7.957044103361023  0.
-0.4544894316110605 -7.958029896464119  0.
-0.7585266865782165 -7.960001776611996  0.
0.763200437761073 -8.265686443963277  0.
0.4573030583371091 -8.263963947781532  0.
0.15233301390451123 -8.263105911255689  0.
-0.1523278887849013 -8.263112657307204  0.
-0.45730277130662755 -8.263979223812797  0.
-0.7632201049202323 -8.265705651115937  0.
0.7672622194846994 -8.573112798909978  0.
0.45974186157323604 -8.571636951243763  0.
0.1531367602043014 -8.570913114859485  0.
-0.15314985966938033 -8.57093743657352  0.
-0.45974089343209484 -8.57169190754602  0.
-0.767285551540072 -8.573172269744159  0.
0.7707157707093711 -8.882018219674265  0.
0.46180594280855924 -8.880786330987908  0.
0.15379117303634415 -8.880210542354053  0.
-0.15387049271206188 -8.880274016357497  0.
-0.4618035029953567 -8.880928363148044  0.
-0.7707081808728113 -8.88215888633734  0.
0.7736027859954417 -9.192152623257474  0.
0.463492790649904 -9.19115335844554  0.
0.1542638500085631 -9.19075069275554  0.
-0.15451537688019212 -9.190878300847324  0.
-0.46348855749334955 -9.191442860010827  0.
-0.7734501494635609 -9.192409451371859  0.
0.7760168645331884 -9.503296826998898  0.
0.4647851636554645 -9.502524672145185  0.
0.15450469207715498 -9.502311021018809  0.
-0.15510673773018166 -9.502505937410335  0.
-0.4647814958218907 -9.502946111107665  0.
-0.775445519392816 -9.503615507769892  0.
0.7781865345329235 -9.815454972807514  0.
0.4656122763770092 -9.81478759233265  0.
0.1544683812691156 -9.814795131328905  0.
-0.15557686165688323 -9.814852661065016  0.
-0.4656460884548142 -9.815025829893017  0.
-0.77663451557354 -9.81535385011852  0.
0.7803204952223382 -10.128759429355538  0.
0.4657405211260162 -10.128612134644696  0.
0.15448259393055958 -10.127992205846196  0.
-0.15572507480782993 -10.127363791778077  0.
-0.4660420976747714 -10.127074152672185  0.
-0.7770848097030161 -10.127073607959218  0.
0.7829866255664211 -10.449747036843306  0.
0.4667498321464928 -10.443772838709775  0.
0.15513947034008252 -10.44050447140146  0.
-0.1554506241830006 -10.438944267393609  0.
-0.4660670805744399 -10.438429847723413  0.
-0.777146321025799 -10.438365971414818  0.
</DataArray>
<DataArray type="Float64" Name="Nodal_sigma_xx" NumberOfComponents="1" format="ascii" >
0.014142957260538516 
0.010360715705810479 
0.003289237075540399 
-0.003289237075543695 
-0.01036071570581399 
-0.014142957260542235 
0.01380858020099359 
0.010334035971687174 
0.003429745871189528 
-0.0034297458711929473 
-0.010334035971690653 
-0.013808580200997116 
0.013385189484519805 
0.010168603302772682 
0.003476008560511891 
-0.003476008560515443 
-0.010168603302776122 
-0.013385189484523136 
0.013168539320109338 
0.00991215591988467 
0.0033278862598291096 
-0.003327886259832654 
-0.009912155919888106 
-0.01316853932011269 
0.012904602253935643 
0.009686118492920013 
0.0032338173659513083 
-0.003233817365954816 
-0.009686118492923454 
-0.012904602253939043 
0.012628481460042959 
0.009472112596020862 
0.0031578718659985095 
-0.0031578718660019846 
-0.009472112596024313 
-0.0126284814600464 
0.012348363579382265 
0.009261201188837938 
0.0030870193991459393 
-0.003087019399149397 
-0.009261201188841385 
-0.01234836357938571 
0.012067723462756872 
0.009050729550072575 
0.0030168678186932815 
-0.0030168678186967184 
-0.009050729550076013 
-0.012067723462760305 
0.011787051772203318 
0.008840271340971194 
0.0029467454548686807 
-0.002946745454872105 
-0.008840271340974626 
-0.01178705177220675 
0.011506399007451384 
0.008629796179677877 
0.0028765966759513274 
-0.002876596675954756 
-0.008629796179681305 
-0.011506399007454815 
0.01122575334971733 
0.008419314794440635 
0.0028064381195811133 
-0.00280643811958455 
-0.00841931479444407 
-0.011225753349720757 
0.01094510932921005 
0.00820883206486867 
0.002736277400262797 
-0.0027362774002662278 
-0.00820883206487211 
-0.010945109329213464 
0.01066446551793651 
0.007998349171936186 
0.0026661164129670916 
-0.002666116412970491 
-0.007998349171939633 
-0.010664465517939965 
0.010383821703481746 
0.007787866285790592 
0.0025959554340488863 
-0.0025959554340522 
-0.007787866285794026 
-0.010383821703485317 
0.010103177877880176 
0.007577383409632277 
0.0025257944706914065 
-0.002525794470694553 
-0.00757738340963574 
-0.01010317787788394 
0.009822534048680255 
0.007366900536543304 
0.0024556335122025113 
-0.0024556335122053454 
-0.00736690053654682 
-0.00982253404868428 
0.009541890218771353 
0.007156417664032794 
0.0023854725546465136 
-0.002385472554649101 
-0.007156417664036355 
-0.009541890218775719 
0.009261246388790605 
0.006945934791575688 
0.0023153115971795055 
-0.002315311597182684 
-0.006945934791578994 
-0.009261246388794376 
0.008980602558820008 
0.006735451919110281 
0.002245150639698166 
-0.0022451506397045103 
-0.006735451919112293 
-0.008980602558819785 
0.008699958728860056 
0.006524969046640667 
0.002174989682204889 
-0.0021749896822211064 
-0.006524969046638976 
-0.00869995872884724 
0.008419314898910854 
0.006314486174171907 
0.0021048287247024708 
-0.0021048287247421604 
-0.006314486174161912 
-0.00841931489886752 
0.008138671068975797 
0.006104003301706075 
0.002034667767189689 
-0.0020346677672728676 
-0.006104003301681567 
-0.008138671068874377 
0.007858027239050075 
0.0058935204292409745 
0.001964506809671748 
-0.0019645068098088116 
-0.005893520429200638 
-0.007858027238872028 
0.007577383409089735 
0.005683037556762144 
0.0018943458521848693 
-0.0018943458523136931 
-0.005683037556733474 
-0.007577383408904377 
0.007296739578942049 
0.0054725546842248 
0.001824184894850183 
-0.00182418489466636 
-0.00547255468432487 
-0.007296739579124205 
0.007016095748219209 
0.005262071811522898 
0.0017540239379677629 
-0.001754023936566808 
-0.00526207181208095 
-0.007016095749919346 
0.006735451916148347 
0.005051588938460485 
0.0016838629821201083 
-0.0016838629774326669 
-0.0050515889401977964 
-0.006735451922062664 
0.006454808081622448 
0.004841106064797127 
0.0016137020281010927 
-0.0016137020164699125 
-0.004841106068915696 
-0.006454808096661187 
0.006174164244181589 
0.004630623190578858 
0.001543541076094612 
-0.001543541053494564 
-0.004630623198188601 
-0.006174164274174976 
0.005893520407703226 
0.004420140317235455 
0.0014733801227320579 
-0.0014733800918753327 
-0.004420140326586759 
-0.00589352045072642 
0.0056128765901938445 
0.004209657450290359 
0.0014032191534865612 
-0.0014032191461389749 
-0.004209657448586575 
-0.005612876608308955 
0.005332232844144441 
0.003999174604600961 
0.001333058127255869 
-0.0013330582573882054 
-0.00399917454933117 
-0.005332232694431673 
0.005051589287870444 
0.003788691811445974 
0.0012628969536043952 
-0.0012628975160596983 
-0.0037886915975425726 
-0.005051588590778463 
0.004770946126430649 
0.0035782091199622243 
0.001192735480868561 
-0.0011927370738216347 
-0.0035782085440866727 
-0.004770944092286754 
0.004490303573698471 
0.003367726566240807 
0.0011225735660267495 
-0.0011225770737052776 
-0.0033677253528786363 
-0.004490298985076361 
0.004209661430027342 
0.003157244041343624 
0.001052411417821035 
-0.00105241730693518 
-0.0031572421328371937 
-0.004209653468821864 
0.003929017783833354 
0.0029467609193332 
0.0009822506177054999 
-0.0009822561916114434 
-0.0029467595096245146 
-0.003929009455448188 
0.003648365965417771 
0.002736275241519733 
0.0009120964576275822 
-0.0009120884332553769 
-0.0027362794403386964 
-0.00364837361653317 
0.003367688993813839 
0.002525782354181643 
0.000841962076087714 
-0.0008419008844379429 
-0.0025258065729968316 
-0.0033677629394917976 
0.003086952956427413 
0.002315273649206754 
0.000771873030154685 
-0.0007716679776346141 
-0.002315349508370336 
-0.003087211343148168 
0.002806109077478731 
0.0021047385502140463 
0.0007018643522355099 
-0.0007013547932872562 
-0.002104918890976715 
-0.0028067675138572596 
0.00252513603592039 
0.0018941792327736922 
0.0006319451857296391 
-0.0006309532508597191 
-0.0018945132036916877 
-0.0025264519638316537 
0.002244200473333164 
0.001683659389827822 
0.0005619718181716453 
-0.0005606122644125922 
-0.0016840720548399512 
-0.002246094250833907 
0.001964081151437733 
0.0014734261882928291 
0.0004913178681735398 
-0.0004909741551401047 
-0.0014733584438940668 
-0.00196490406630877 
0.0016870851407162918 
0.0012641259540760762 
0.0004181849616327141 
-0.00042383565022952003 
-0.001261727531992285 
-0.001680580607695962 
0.001418473129361952 
0.0010570509260486318 
0.00033845502310528324 
-0.00036300300058576194 
-0.0010476915877872868 
-0.001388095850927795 
0.0011684436325973637 
0.0008534419136688685 
0.0002442399677428962 
-0.0003138095395960353 
-0.0008284617840424471 
-0.0010792647481474046 
0.0009485713758234009 
0.0006519849677361645 
0.00012456756899409266 
-0.0002774206962254265 
-0.0005988532569067553 
-0.0007491285430234005 
0.0007683637210542985 
0.00043327215649275724 
-2.4739896383679107e-05 
-0.00022516273903772706 
-0.0003594419641442187 
-0.0004162188349115575 
0.00046696370744988056 
0.00019568962864654606 
-8.981939911414179e-05 
-0.00012130794035337126 
-0.00014366245461106285 
-0.00014876337658687832 
0.00024461138633973163 
7.619994981824603e-05 
-7.326597445895165e-05 
-5.4304199553573556e-05 
-4.9039718710906154e-05 
-4.3791500529328936e-05 
</DataArray>
<DataArray type="Float64" Name="Nodal_sigma_yy" NumberOfComponents="1" format="ascii" >
0.0034264746613524646 
0.002641691634142139 
0.000928454303465618 
-0.0009284543034667419 
-0.002641691634143195 
-0.003426474661353483 
0.0016189695542874255 
0.0013640243531353642 
0.0005545395759914457 
-0.0005545395759922348 
-0.0013640243531360067 
-0.0016189695542879556 
-9.485968810345733e-05 
1.776964028883958e-05 
6.519948434049058e-05 
-6.519948434076469e-05 
-1.7769640288974834e-05 
9.485968810342437e-05 
-1.1914261391839619e-05 
-3.93375229998643e-05 
-3.3380392303959374e-05 
3.338039230391823e-05 
3.9337522999848907e-05 
1.1914261391831596e-05 
-1.2947373454680507e-05 
-1.705065757778352e-05 
-1.0576970850440488e-05 
1.0576970850458133e-05 
1.7050657577796042e-05 
1.2947373454681374e-05 
-1.9552829362149207e-06 
-3.5978058146875864e-06 
-2.6201643465782694e-06 
2.620164346598842e-06 
3.5978058146977237e-06 
1.9552829362014766e-06 
-3.2343302501687543e-07 
-4.834162998675322e-07 
-3.21699787360382e-07 
3.216997873693538e-07 
4.834162998734411e-07 
3.2343302500559973e-07 
1.8509759240527973e-08 
1.0683767145492143e-08 
1.4288875301612762e-09 
-1.4288875252281563e-09 
-1.0683767147172656e-08 
-1.850975923402276e-08 
1.6188343734090116e-08 
2.507452809470158e-08 
1.6980356230949785e-08 
-1.698035623162741e-08 
-2.5074528102290994e-08 
-1.6188343734740637e-08 
5.371470126547609e-09 
8.164076589246838e-09 
5.478341521582015e-09 
-5.478341522612007e-09 
-8.164076583229516e-09 
-5.371470130017056e-09 
9.680109888578897e-10 
1.583200518655379e-09 
1.0991950375892259e-09 
-1.0991949898843303e-09 
-1.5832004925803167e-09 
-9.680109786663893e-10 
9.289655915172002e-11 
1.600486854050169e-10 
1.1360043553629642e-10 
-1.1360038100092715e-10 
-1.6004868616395843e-10 
-9.28965509117835e-11 
-1.5594932029766584e-11 
-1.9873487458552802e-11 
-1.207602668849752e-11 
1.2075979444387853e-11 
1.9873460136658055e-11 
1.5594950894884385e-11 
-9.346406461274714e-12 
-1.4161545634078232e-11 
-9.488417477665056e-12 
9.488284188560476e-12 
1.4161543411463778e-11 
9.346368297358243e-12 
-2.4885610065694674e-12 
-3.8937377627723535e-12 
-2.6495625287423046e-12 
2.649367602744219e-12 
3.8936976472919715e-12 
2.488449550586136e-12 
-4.041415639643997e-13 
-6.615878634860795e-13 
-4.594859716777928e-13 
4.595621775379914e-13 
6.615995728695423e-13 
4.0413701031527527e-13 
-2.201906192100811e-14 
-4.312885769006125e-14 
-3.1716254243144976e-14 
3.30116454463035e-14 
4.367177192793337e-14 
2.2126397936084174e-14 
1.1762726209729735e-14 
1.7250036035004745e-14 
1.2750102351948706e-14 
-8.086257629203591e-15 
-1.4954075304440817e-14 
-1.0972776506856796e-14 
6.127476998019077e-15 
1.072454841946624e-14 
1.135570316165152e-14 
1.2332664186751052e-15 
-4.193314532413561e-15 
-3.4633754197876954e-15 
4.00677754863743e-15 
8.847198147698965e-15 
1.458643590027814e-14 
1.2124321186780807e-14 
5.3164937729999195e-15 
1.869598226234004e-15 
5.000774100372141e-15 
1.1719737593590684e-14 
2.131954145558404e-14 
2.1037730205900745e-14 
1.131595359950277e-14 
4.756828611562902e-15 
4.925747310036144e-15 
9.937770007947822e-15 
1.6087696767200926e-14 
1.6202676407593014e-14 
9.998539539715634e-15 
4.817327092787593e-15 
-4.9738858864945e-15 
-1.9175335147850192e-14 
-4.4915853263279015e-14 
-4.487899038941451e-14 
-1.9218486394315115e-14 
-5.1339141271533606e-15 
-4.5815564883588955e-14 
-1.2899428161912418e-13 
-2.645329159715881e-13 
-2.6458907764412287e-13 
-1.2905141907361417e-13 
-4.581751644749943e-14 
-1.5899781491413023e-13 
-4.205529154088783e-13 
-8.335746643720748e-13 
-8.334950839326144e-13 
-4.2050575261437517e-13 
-1.5906265020404486e-13 
-4.03651829843088e-13 
-1.0267060368118058e-12 
-1.9897722792344696e-12 
-1.9894713047113877e-12 
-1.0264925574040434e-12 
-4.0382682007372717e-13 
-8.031497559027323e-13 
-1.960073325434769e-12 
-3.702988064021185e-12 
-3.702848337466206e-12 
-1.95997458172191e-12 
-8.032317215869722e-13 
-1.146476685288944e-12 
-2.5842468356213066e-12 
-4.622351512781255e-12 
-4.6224789336415766e-12 
-2.584472539408564e-12 
-1.1466732511428157e-12 
-4.63129968403253e-13 
-2.6824308291088783e-13 
5.411291193239097e-13 
5.410437112977722e-13 
-2.685277130862196e-13 
-4.635284127016415e-13 
4.068651231897702e-12 
1.2297305291035163e-11 
2.61092517099765e-11 
2.6109280278703746e-11 
1.2297089914273598e-11 
4.0681633409200835e-12 
1.8794064720294157e-11 
5.094573371565263e-11 
1.0241511492901012e-10 
1.0241544729118609e-10 
5.094575973650477e-11 
1.8793452037646485e-11 
5.467493471855711e-11 
1.4164379882213897e-10 
2.7755680078847046e-10 
2.7755777285703325e-10 
1.416448289497281e-10 
5.4675050836609784e-11 
1.2304131834488946e-10 
3.070697941797221e-10 
5.88334213879921e-10 
5.88337868535709e-10 
3.070748101055478e-10 
1.230440408849648e-10 
2.127996054108322e-10 
5.041918170944557e-10 
9.340581842872103e-10 
9.340685957993575e-10 
5.042070724424388e-10 
2.1280929308250401e-10 
2.206105531544697e-10 
4.42212633454701e-10 
7.184726529369738e-10 
7.184733839331835e-10 
4.4221613084696396e-10 
2.206160859465761e-10 
-2.1251899361401233e-10 
-8.278975858545031e-10 
-1.9399547056350057e-09 
-1.9401683878698896e-09 
-8.282010615506818e-10 
-2.1269858053660218e-10 
-1.9980366910673023e-09 
-5.624993862257438e-09 
-1.1536699439526296e-08 
-1.1538269569132055e-08 
-5.627285360628701e-09 
-1.999479428598308e-09 
-6.951174636544641e-09 
-1.838077136617777e-08 
-3.644767497061518e-08 
-3.6454548112156764e-08 
-1.8390946583725647e-08 
-6.957778788557224e-09 
-1.7667515955430146e-08 
-4.49546959579918e-08 
-8.715761409281233e-08 
-8.71739087648178e-08 
-4.497977547554251e-08 
-1.7685085646520615e-08 
-3.525035509408664e-08 
-8.604976577362706e-08 
-1.6258128520585497e-07 
-1.6255349519714386e-07 
-8.601376811383156e-08 
-3.5233939791917863e-08 
-5.0696536414945696e-08 
-1.143116999779818e-07 
-2.0416412765973923e-07 
-2.0360642685841396e-07 
-1.1351582922655885e-07 
-5.0220196514750345e-08 
-2.2817285134501143e-08 
-1.620323723748574e-08 
1.8213921945006798e-08 
2.163795361176686e-08 
-1.1148176301046565e-08 
-1.9555226595142916e-08 
1.7107641407215464e-07 
5.247584598931816e-07 
1.129164265210328e-06 
1.1424480075164763e-06 
5.443124597059838e-07 
1.8361692908546237e-07 
8.025522562149848e-07 
2.2076378248353547e-06 
4.462876655587872e-06 
4.484025059099213e-06 
2.2431336744965397e-06 
8.312471485146726e-07 
2.47070271985596e-06 
6.285768370304413e-06 
1.220595537411302e-05 
1.2090061019736464e-05 
6.114262512070434e-06 
2.3594797121411133e-06 
5.842918997793923e-06 
1.4453009639275772e-05 
2.6481667670067237e-05 
2.5070787403889807e-05 
1.2513624227343224e-05 
4.785908706283684e-06 
1.4036881219364148e-05 
2.776527538826187e-05 
4.446654330200509e-05 
3.7422096465349836e-05 
1.6759577783785876e-05 
6.114379683722657e-06 
1.678667104772856e-05 
3.8233313931185936e-05 
4.399793520321685e-05 
1.7175885137650997e-05 
3.2328853277822652e-06 
4.2991397205291264e-07 
6.223602613076287e-05 
-2.1112988788365365e-06 
-9.19280653896956e-05 
-9.838603801145676e-05 
-4.92635928418856e-05 
-1.915261655181293e-05 
-0.0007429812956574727 
-0.000705773979556954 
-0.0005534547234720073 
-0.00031785885017780865 
-0.00011687309114192321 
-3.63712654158082e-05 
-0.001596917600301995 
-0.00136660246989483 
-0.0008885318247535729 
-0.0004465477720695572 
-0.00014598081836860382 
-3.964240261757372e-05 
</DataArray>
<DataArray type="Float64" Name="Nodal_sigma_xy" NumberOfComponents="1" format="ascii" >
-0.0011626159406202892 
-0.0005180365442042652 
0.00034934451451050654 
0.0003493445145103451 
-0.0005180365442047487 
-0.0011626159406209334 
-0.0005901495822757621 
-0.0003868420969662079 
-6.808311190000816e-05 
-6.8083111900124e-05 
-0.000386842096966497 
-0.0005901495822761087 
-4.836316284634505e-05 
-0.0002444196507521421 
-0.00048139876782904016 
-0.00048139876782907025 
-0.00024441965075217264 
-4.8363162846346e-05 
-0.00010802572709585051 
-0.0002447805469276463 
-0.0004512065895288528 
-0.00045120658952883645 
-0.0002447805469276058 
-0.0001080257270958023 
-0.00014651326439061072 
-0.00025976808266955285 
-0.00041697528513955106 
-0.00041697528513953274 
-0.00025976808266951675 
-0.00014651326439057505 
-0.0001577362078788069 
-0.00026396266793692573 
-0.0004071692281280671 
-0.00040716922812805744 
-0.0002639626679369066 
-0.00015773620787878781 
-0.00015961625344695945 
-0.0002648494074509823 
-0.0004053424658299374 
-0.0004053424658299323 
-0.0002648494074509722 
-0.00015961625344694964 
-0.00015975004718263004 
-0.00026493748650925105 
-0.000405187489903815 
-0.00040518748990381207 
-0.000264937486509245 
-0.00015975004718262365 
-0.0001597051064541348 
-0.00026492919230839985 
-0.00040521825446888004 
-0.0004052182544688794 
-0.0002649291923083979 
-0.0001597051064541322 
-0.00015968395840690506 
-0.0002649219144881126 
-0.00040523610631272214 
-0.000405236106312727 
-0.00026492191448812335 
-0.00015968395840691677 
-0.00015967881441819002 
-0.0002649198894059042 
-0.00040524070338928417 
-0.00040524070338929913 
-0.00026491988940592767 
-0.00015967881441820696 
-0.00015967805989381588 
-0.0002649195336678399 
-0.00040524143638958444 
-0.00040524143638958374 
-0.00026491953366782853 
-0.00015967805989379436 
-0.00015967804234220658 
-0.00026491950842342035 
-0.0004052414704098628 
-0.00040524147040982885 
-0.00026491950842336424 
-0.0001596780423421622 
-0.0001596780717076669 
-0.00026491951629571225 