<?xml version="1.0"?>
<VTKFile type="UnstructuredGrid" version="0.1" byte_order="LittleEndian" compressor="vtkZLibDataCompressor">
<UnstructuredGrid>
<Piece NumberOfPoints="306" NumberOfCells="250">
<PointData>
<DataArray type="Float64" Name="displacement" NumberOfComponents="3" format="ascii" >
0.0 0.0  0.
0.0 0.0  0.
0.0 0.0  0.
0.0 0.0  0.
0.0 0.0  0.
0.0 0.0  0.
0.04867849726129805 -0.0325040348845473  0.
0.02531423264528803 -0.011477285745105568  0.
0.00833297487766433 -0.0032599454432915864  0.
-0.008332974877669203 -0.003259945443292424  0.
-0.025314232645293033 -0.011477285745108303  0.
-0.048678497261304556 -0.03250403488455294  0.
0.09790551431939762 -0.06419942905943116  0.
0.056684620076841996 -0.044680632933163364  0.
0.018324956614160816 -0.034150906958166305  0.
-0.018324956614171543 -0.034150906958167686  0.
-0.05668462007685319 -0.04468063293316765  0.
-0.0979055143194098 -0.06419942905943826  0.
0.14676730565248897 -0.11542418273017038  0.
0.08681444114414416 -0.09603133568455548  0.
0.028668904367962635 -0.08617423735737825  0.
-0.028668904367979697 -0.08617423735737982  0.
-0.08681444114416156 -0.09603133568456017  0.
-0.14676730565250679 -0.11542418273017804  0.
0.19511339103710165 -0.1859222385730005  0.
0.11600627079199395 -0.16702287937826776  0.
0.03847344190739045 -0.15752401408707992  0.
-0.038473441907413884 -0.1575240140870815  0.
-0.11600627079201759 -0.16702287937827248  0.
-0.19511339103712538 -0.18592223857300821  0.
0.24251142906244327 -0.27567021096209215  0.
0.14446996667661358 -0.2571902119473976  0.
0.047981295830267216 -0.2479451053732134  0.
-0.047981295830296936 -0.24794510537321496  0.
-0.14446996667664336 -0.25719021194740227  0.
-0.24251142906247314 -0.2756702109620998  0.
0.28888215789009575 -0.3841926510186613  0.
0.17229214397521384 -0.36612690337034437  0.
0.05725769165541547 -0.3570939873982914  0.
-0.0572576916554514 -0.3570939873982929  0.
-0.1722921439752498 -0.3661269033703489  0.
-0.2888821578901317 -0.3841926510186689  0.
0.3342104418477299 -0.5110602565850082  0.
0.19948787042911176 -0.4934052844142653  0.
0.06632297022748787 -0.48457810344015273  0.
-0.06632297022752996 -0.48457810344015423  0.
-0.1994878704291539 -0.49340528441426984  0.
-0.33421044184777204 -0.5110602565850157  0.
0.37849602885018957 -0.6558510688634418  0.
0.2260588097314073 -0.6386066630698617  0.
0.07517983352849726 -0.6299845539943452  0.
-0.07517983352854553 -0.6299845539943467  0.
-0.22605880973145556 -0.6386066630698662  0.
-0.3784960288502379 -0.6558510688634493  0.
0.42173937402474604 -0.8181476243445104  0.
0.2520047346406173 -0.8013137734706349  0.
0.08382843727342891 -0.7928968672905543  0.
-0.0838284372734833 -0.7928968672905558  0.
-0.2520047346406717 -0.8013137734706395  0.
-0.4217393740248005 -0.8181476243445179  0.
0.4639406673217381 -0.9975330642985555  0.
0.2773255018997931 -0.9811097886685518  0.
0.09226868518665529 -0.9728981527889085  0.
-0.09226868518671583 -0.97289815278891  0.
-0.2773255018998536 -0.9811097886685562  0.
-0.4639406673217988 -0.9975330642985631  0.
0.5050999488042953 -1.1935906077187723  0.
0.3020210716619622 -1.1775779127514105  0.
0.10050054094332266 -1.169571565059013  0.
-0.10050054094338935 -1.1695715650590146  0.
-0.30202107166202885 -1.1775779127514152  0.
-0.5050999488043619 -1.1935906077187801  0.
0.5452172236914197 -1.405903460359434  0.
0.3260914372965291 -1.390301347233395  0.
0.10852399623030623 -1.3825002905046122  0.
-0.10852399623037902 -1.3825002905046135  0.
-0.32609143729660195 -1.3903013472333994  0.
-0.5452172236914923 -1.4059034603594414  0.
0.5842924918238926 -1.634054821465345  0.
0.349536598374004 -1.6188632902885638  0.
0.11633904998847601 -1.6112675246542059  0.
-0.11633904998855449 -1.611267524654207  0.
-0.349536598374083 -1.6188632902885673  0.
-0.584292491823972 -1.634054821465352  0.
0.6223257529133603 -1.877627888461038  0.
0.3723565550621939 -1.8628469392208453  0.
0.12394570223651366 -1.8554564645927694  0.
-0.12394570223659729 -1.8554564645927702  0.
-0.37235655506227916 -1.8628469392208484  0.
-0.6223257529134466 -1.8776278884610447  0.
0.6593170068679948 -2.1362058584879033  0.
0.39455130743746847 -2.1218354911741737  0.
0.13134395303156787 -2.1146503075167535  0.
-0.1313439530316558 -2.114650307516754  0.
-0.39455130743755973 -2.1218354911741764  0.
-0.6593170068680898 -2.1362058584879096  0.
0.6952662536702203 -2.409371928671554  0.
0.41612085551804207 -2.395412143281549  0.
0.138533802392006 -2.388432250586729  0.
-0.13853380239209784 -2.388432250586731  0.
-0.4161208555181393 -2.395412143281555  0.
-0.6952662536703268 -2.4093719286715642  0.
0.7301734933183225 -2.696709296146074  0.
0.4370651993065293 -2.68316009267932  0.
0.14551525032143006 -2.6763854909460347  0.
-0.14551525032152915 -2.676385490946042  0.
-0.43706519930663223 -2.683160092679338  0.
-0.7301734933184425 -2.696709296146098  0.
0.764038725812545 -2.997801158049071  0.
0.4573843388029708 -2.984662536505536  0.
0.15228829682019876 -2.9780932257338035  0.
-0.15228829682031983 -2.9780932257338257  0.
-0.45738433880307916 -2.9846625365055885  0.
-0.764038725812674 -2.99780115804913  0.
0.7968619511530621 -3.312230711518967  0.
0.4770782740072589 -3.2995026718986593  0.
0.158852941888255 -3.293138652088544  0.
-0.1588529418884397 -3.2931386520886003  0.
-0.47707827400737174 -3.299502671898787  0.
-0.7968619511531695 -3.312230711519096  0.
0.828643169339952 -3.6395811536943015  0.
0.4961470049193546 -3.627263695997217  0.
0.16520918552554165 -3.6211049671487516  0.
-0.1652091855258822 -3.621104967148864  0.
-0.4961470049194712 -3.6272636959974713  0.
-0.828643169339939 -3.639581153694532  0.
0.8593823803732925 -3.979435681713661  0.
0.5145905315392494 -3.967528805939776  0.
0.17135702773201844 -3.9615753680529604  0.
-0.17135702773266998 -3.9615753680531265  0.
-0.5145905315393702 -3.9675288059401477  0.
-0.8593823803729194 -3.9794356817139347  0.
0.889079584253192 -4.3313774927157445  0.
0.53240885386694 -4.319881198865014  0.
0.17729646850768738 -4.314133051939765  0.
-0.1772964685087981 -4.314133051939854  0.
-0.5324088538670704 -4.319881198865206  0.
-0.889079584252003 -4.331377492715673  0.
0.9177347809797216 -4.694989783839526  0.
0.5496019719024188 -4.683904071911891  0.
0.1830275078527255 -4.678361215947888  0.
-0.18302750785408944 -4.678361215947387  0.
-0.5496019719025792 -4.683904071910747  0.
-0.9177347809771195 -4.694989783837838  0.
0.9453479705526031 -5.069855752224462  0.
0.5661698856456693 -5.0591806222199205  0.
0.18855014576782858 -5.053843057216299  0.
-0.1885501457678478 -5.0538430572138235  0.
-0.5661698856459141 -5.059180622214327  0.
-0.9453479705485467 -5.0698557522180385  0.
0.9719191529703568 -5.455558595010512  0.
0.582112595096663 -5.445294046929364  0.
0.19386438225488475 -5.440161772884304  0.
-0.1938643822481863 -5.440161772876921  0.
-0.5821125950971032 -5.4452940469127515  0.
-0.9719191529677641 -5.4555585949933825  0.
0.9974483282284545 -5.851681509337184  0.
0.5974301002553722 -5.841827543180639  0.
0.1989702173178976 -5.836900560091289  0.
-0.1989702172911006 -5.8369005600743575  0.
-0.5974301002561754 -5.841827543142661  0.
-0.9974483282393007 -5.851681509301422  0.
1.0219354963163074 -6.257807692339568  0.
0.6121224011218307 -6.248364308110955  0.
0.2038676509632308 -6.243642615975231  0.
-0.2038676508902273 -6.243642615945224  0.
-0.6121224011230963 -6.248364308043916  0.
-1.0219354963737457 -6.257807692284137  0.
1.0453806572146893 -6.673520341137244  0.
0.6261894976963222 -6.664487538843724  0.
0.2085566831958026 -6.659971137667993  0.
-0.20855668304064828 -6.65997113763472  0.
-0.6261894976975824 -6.664487538770169  0.
-1.0453806573903257 -6.67352034109901  0.
1.0677838109009339 -7.0984026528102175  0.
0.6396313899798126 -7.089780432463398  0.
0.21303731400248754 -7.085469322284117  0.
-0.21303731375548873 -7.0854693223053715  0.
-0.639631389978668 -7.089780432514035  0.
-1.0677838113117077 -7.098402652943104  0.
1.0891449573832312 -7.532037824359259  0.
0.6524480779747261 -7.523826185968859  0.
0.21730954330493435 -7.519720366899974  0.
-0.21730954311310022 -7.5197203671578725  0.
-0.6524480779639296 -7.523826186553697  0.
-1.089144958129702 -7.532037825092711  0.
1.1094640968119227 -7.974009052670742  0.
0.6646395616858316 -7.966207996215824  0.
0.2213733708553458 -7.962307468527792  0.
-0.22137337136128077 -7.962307469457061  0.
-0.6646395616485985 -7.9662079983105025  0.
-1.1094640976939674 -7.974009054938529  0.
1.1287412297504626 -8.423899534580169  0.
0.6762058411198011 -8.416509059926064  0.
0.225228796060742 -8.412813824118912  0.
-0.2252287990930157 -8.41281382652865  0.
-0.6762058410260076 -8.41650906533975  0.
-1.1287412294410475 -8.423899539922122  0.
1.146976357691201 -8.88129246731029  0.
0.6871469162788368 -8.874312574022678  0.
0.22887581781428992 -8.870822630711361  0.
-0.228875827415161 -8.870822635611656  0.
-0.6871469160939792 -8.874312584995412  0.
-1.146976351878568 -8.88129247709782  0.
1.1641694837312135 -9.3457710499077  0.
0.697462787137282 -9.339201736933484  0.
0.23231443472531502 -9.335917086007692  0.
-0.2323144577184477 -9.335917093280552  0.
-0.6974627868782594 -9.33920175312672  0.
-1.164169461909338 -9.34577106169607  0.
1.1803206126257375 -9.81691848676395  0.
0.7071534535802931 -9.810759752107844  0.
0.23554464691929955 -9.807680389939735  0.
-0.23554468987730975 -9.807680393880762  0.
-0.7071534534938109 -9.810759760561119  0.
-1.1803205547778288 -9.816918483601908  0.
1.1954297475055002 -10.294317994368335  0.
0.7162189152773244 -10.288569835441217  0.
0.2385664621004823 -10.285695747983802  0.
-0.23856651618569374 -10.285695726215623  0.
-0.7162189162701418 -10.288569785678803  0.
-1.1954296273536658 -10.29431792060029  0.
1.2094968763725495 -10.777552810290985  0.
0.7246591714883477 -10.772215226990976  0.
0.24137991066383896 -10.769546376419507  0.
-0.24137990623722505 -10.76954626829686  0.
-0.7246591759371512 -10.772214982694686  0.
-1.2094966916435594 -10.777552529387737  0.
1.222521934684806 -11.26620619444251  0.
0.732474220933446 -11.261279199750781  0.
0.243985075210024 -11.258815506367082  0.
-0.24398477738683438 -11.258815183330562  0.
-0.7324742337233465 -11.26127847288726  0.
-1.2225218122461357 -11.266205444315954  0.
1.2345047244614098 -11.759861387644662  0.
0.739664062288325 -11.755345034422666  0.
0.24638213127980474 -11.753086372750175  0.
-0.2463809540163484 -11.753085630721344  0.
-0.7396640907947168 -11.755343369901558  0.
-1.234505187364647 -11.759859818950645  0.
1.2454447819808443 -12.258101438606866  0.
0.7462286969821488 -12.253995872220337  0.
0.2485713589113023 -12.251942148909029  0.
-0.24856815646215533 -12.251940830733373  0.
-0.746228745677751 -12.253992927391796  0.
-1.2454472811411303 -12.258099000018856  0.
1.2553412618079531 -12.76050872016311  0.
0.7521681389371558 -12.756814253494298  0.
0.2505529791289969 -12.754965738110721  0.
-0.25054616817920605 -12.754964268306862  0.
-0.7521681874765315 -12.756811002262788  0.
-1.2553489372155717 -12.760507014767784  0.
1.264193153774355 -13.266663881499362  0.
0.7574824416701943 -13.263381014041531  0.
0.25232643709974734 -13.261739276529449  0.
-0.25231556790271814 -13.261740172260934  0.
-0.7574823860181102 -13.263383160766097  0.
-1.2642111442965376 -13.266669627679226  0.
1.2720007296014444 -13.77614407326453  0.
0.7621717638950031 -13.773273246294952  0.
0.25388835650750713 -13.771843185418549  0.
-0.2538798146413462 -13.771854428837742  0.
-0.7621712855107232 -13.773298706347063  0.
-1.2720335081998997 -13.77617608518563  0.
1.2787703658074907 -14.288521331508868  0.
0.7662364359552166 -14.286061585398508  0.
0.2552279336738253 -14.284855191424711  0.
-0.25524976611547795 -14.284895727614769  0.
-0.766234822386503 -14.286153179235605  0.
-1.2788092525663013 -14.28862044956584  0.
1.2845262845152783 -14.803363699449186  0.
0.7696765713474235 -14.801310551638588  0.
0.2563186217272304 -14.800350903915497  0.
-0.25645082118661333 -14.800456693921236  0.
-0.7696725049919397 -14.801547271905482  0.
-1.284513634787534 -14.803598143887642  0.
1.28933797665873 -15.320254372087701  0.
0.7724879844163322 -15.318588930734474  0.
0.25710641668092904 -15.317917821251141  0.
-0.25752562813349694 -15.318130501404118  0.
-0.7724809291552612 -15.319071433343291  0.
-1.289083582438783 -15.320682418945012  0.
1.293361440888309 -15.838828044989906  0.
0.7746419394256001 -15.837541120233723  0.
0.25750782012858187 -15.837185035023094  0.
-0.25851122955014694 -15.83750989567564  0.
-0.7746358263694963 -15.838243518504523  0.
-1.2924091989875408 -15.839359179608234  0.
1.2969775575545333 -16.359091621337438  0.
0.7760204606281746 -16.357979320546  0.
0.25744730211518346 -16.35799188553976  0.
-0.2592947694279827 -16.358087768433275  0.
-0.7760768140910355 -16.358376383146613  0.
-1.2943908592887456 -16.358923083522452  0.
1.3005341587035584 -16.881265715583982  0.
0.7762342018765198 -16.881020224399244  0.
0.2574709898842565 -16.879987009735075  0.
-0.25954179134622685 -16.87893965295488  0.
-0.7767368294576307 -16.878456921111724  0.
-1.2951413495045394 -16.87845601325678  0.
1.3049777092770296 -17.41624506139676  0.
0.7779163869106476 -17.406288064507542  0.
0.2585657839001284 -17.400840785660353  0.
-0.2590843736381774 -17.398240445647264  0.
-0.7767784676237448 -17.39738307953027  0.
-1.2952438683758438 -17.397276619015948  0.
</DataArray>
<DataArray type="Float64" Name="Nodal_sigma_xx" NumberOfComponents="1" format="ascii" >
0.02357159543420881 
0.017267859509668387 
0.005482061792563156 
-0.0054820617925664655 
-0.01726785950967191 
-0.02357159543421254 
0.023014300334968103 
0.017223393286129787 
0.005716243118644881 
-0.005716243118648313 
-0.017223393286133284 
-0.02301430033497165 
0.022308649140846442 
0.016947672171273 
0.005793347600848887 
-0.005793347600852454 
-0.016947672171276455 
-0.022308649140849787 
0.02194756553349666 
0.016520259866460527 
0.005546477099711299 
-0.005546477099714861 
-0.01652025986646398 
-0.02194756553350003 
0.021507670423208253 
0.01614353082152028 
0.005389695609915265 
-0.005389695609918782 
-0.01614353082152374 
-0.021507670423211687 
0.021047469100054898 
0.015786854326689193 
0.005263119776660869 
-0.005263119776664353 
-0.015786854326692648 
-0.02104746910005835 
0.0205806059656215 
0.015435335314718468 
0.0051450323319068465 
-0.0051450323319103194 
-0.01543533531472192 
-0.020580605965624946 
0.02011287243791357 
0.015084549250110336 
0.005028113031152679 
-0.005028113031156151 
-0.0150845492501138 
-0.02011287243791704 
0.019645086286992085 
0.014733785568275528 
0.0049112424247786226 
-0.004911242424782076 
-0.014733785568278979 
-0.01964508628699553 
0.0191773316790733 
0.014382993632787479 
0.004794327793249962 
-0.004794327793253419 
-0.014382993632790905 
-0.019177331679076707 
0.018709588916184315 
0.014032191324059577 
0.004677396865966554 
-0.004677396865970011 
-0.014032191324062977 
-0.018709588916187667 
0.01824184888200659 
0.013681386774773794 
0.004560462333769626 
-0.004560462333773092 
-0.01368138677477718 
-0.01824184888200992 
0.01777410919655171 
0.013330581953220413 
0.0044435273549437064 
-0.004443527354947116 
-0.013330581953223852 
-0.017774109196555175 
0.017306369505794894 
0.012979777142978538 
0.0043265923900802925 
-0.004326592390083584 
-0.012979777142982011 
-0.017306369505798454 
0.016838629796460038 
0.012628972349382124 
0.004209657451151378 
-0.004209657451154451 
-0.012628972349385672 
-0.016838629796463896 
0.016370890081127736 
0.012278167560901245 
0.0040927225203367815 
-0.004092722520339376 
-0.01227816756090493 
-0.016370890081132308 
0.015903150364614007 
0.01192736277338456 
0.0039757875910770265 
-0.003975787591079229 
-0.01192736277338821 
-0.01590315036461902 
0.01543541064798047 
0.011576557985956835 
0.003858852661965635 
-0.00385885266196875 
-0.01157655798596 
-0.01543541064798443 
0.01496767093136359 
0.01122575319851513 
0.003741917732830341 
-0.0037419177328386864 
-0.011225753198516278 
-0.014967670931361171 
0.014499931214764585 
0.010874948411066412 
0.003624982803675087 
-0.003624982803699864 
-0.010874948411061432 
-0.014499931214741201 
0.014032191498183494 
0.01052414362361917 
0.0035080478745045897 
-0.0035080478745686066 
-0.010524143623600338 
-0.014032191498109123 
0.013564451781625882 
0.010173338836176743 
0.0033911129453168105 
-0.00339111294545343 
-0.010173338836133763 
-0.013564451781454653 
0.013096712065083744 
0.00982253404873538 
0.0032741780161203637 
-0.0032741780163468024 
-0.009822534048666093 
-0.013096712064784868 
0.012628972348483754 
0.009471729261271121 
0.003157243086975776 
-0.0031572430871884298 
-0.009471729261221404 
-0.012628972348172885 
0.012161232631571563 
0.009120924473709439 
0.0030403081580848475 
-0.003040308157776549 
-0.009120924473874366 
-0.012161232631873253 
0.011693492913701187 
0.008770119685873587 
0.0029233732299476403 
-0.002923373227610916 
-0.008770119686801813 
-0.011693492916532496 
0.011225753193583732 
0.008419314897436612 
0.0028064383035349386 
-0.002806438295720821 
-0.008419314900330375 
-0.011225753203438722 
0.010758013469374009 
0.00806851010799786 
0.0026895033801699634 
-0.0026895033607830677 
-0.008068510114860584 
-0.010758013494436818 
0.010290273740306166 
0.007717705317634315 
0.0025725684601592374 
-0.002572568422490957 
-0.007717705330315814 
-0.010290273790293701 
0.009822534012842596 
0.007366900528729033 
0.0024556335378884374 
-0.0024556334864589517 
-0.007366900544313031 
-0.009822534084546756 
0.009354794316993976 
0.007016095750487623 
0.002338698589146223 
-0.002338698576898409 
-0.007016095747646365 
-0.009354794347184737 
0.008887054740245539 
0.0066652910076722 
0.0022217635454283412 
-0.0022217637623139466 
-0.0066652909155541715 
-0.008887054490722628 
0.008419315479789271 
0.0063144863524139516 
0.002104828256008917 
-0.002104829193433238 
-0.006314485995906497 
-0.008419314317967316 
0.007951576877389763 
0.005963681866607672 
0.0019878924681157417 
-0.0019878951230366594 
-0.00596368090681351 
-0.0079515734871478 
0.0074838392895028505 
0.00561287761040529 
0.001870955943379503 
-0.0018709617895094543 
-0.005612875588133695 
-0.0074838316417972055 
0.007016102383384096 
0.005262073402243362 
0.00175401902970346 
-0.001754028844892524 
-0.005262070221398005 
-0.0070160891147066674 
0.006548362973060936 
0.0049112681988927424 
0.0016370843628440725 
-0.00163709365268631 
-0.0049112658493767015 
-0.006548349092417187 
0.0060806099423682805 
0.004560458735870169 
0.0015201607627139406 
-0.001520147388759718 
-0.004560465733900188 
-0.0060806226942251166 
0.005612814989694455 
0.004209637256973068 
0.0014032701268142135 
-0.0014031681407305242 
-0.004209677621663724 
-0.005612938232489654 
0.005144921594049655 
0.0038587894153478686 
0.0012864550502592357 
-0.0012861132960581205 
-0.0038589158472863835 
-0.0051453522385841366 
0.0046768484624680655 
0.0035078975836928448 
0.00116977392039388 
-0.0011689246554789814 
-0.0035081981516300056 
-0.004677945856431912 
0.004208560059870537 
0.003156965387958429 
0.0010532419762173746 
-0.001051588751432521 
-0.003157522006154172 
-0.004210753273054874 
0.003740334122224595 
0.002806098983048251 
0.000936619696953763 
-0.0009343537740206759 
-0.0028067867580675024 
-0.003743490418058033 
0.003273468585731335 
0.0024557103138229163 
0.0008188631136235621 
-0.0008182902585666058 
-0.002455597406490483 
-0.003274840110515128 
0.0028118085678613836 
0.0021068765901276257 
0.0006969749360553568 
-0.0007063927503818828 
-0.002102879219986898 
-0.0028009676794931845 
0.0023641218822700013 
0.0017617515434144781 
0.0005640917051760921 
-0.0006050050009753515 
-0.0017461526463118085 
-0.002313493084879685 
0.0019474060543292612 
0.0014224031894483915 
0.00040706661290540523 
-0.0005230158993261959 
-0.0013807696400704298 
-0.0017987745802451793 
0.0015809522930401473 
0.0010866416128942295 
0.0002076126149903677 
-0.0004623678270420171 
-0.0009980887615106972 
-0.0012485475717049367 
0.0012806062017582372 
0.0007221202608216817 
-4.1233160639418844e-05 
-0.0003752712317289965 
-0.0005990699402398449 
-0.0006936980581856606 
0.000778272845750223 
0.00032614938107765025 
-0.00014969899852347357 
-0.00020217990058870604 
-0.00023943742435165007 
-0.00024793896097791276 
0.000407685643899461 
0.00012699991636362176 
-0.0001221099574314279 
-9.050699925592845e-05 
-8.173286451829855e-05 
-7.298583421537852e-05 
</DataArray>
<DataArray type="Float64" Name="Nodal_sigma_yy" NumberOfComponents="1" format="ascii" >
0.005710791102248699 
0.00440281939023285 
0.001547423839108211 
-0.0015474238391093395 
-0.004402819390233912 
-0.005710791102249724 
0.002698282590476485 
0.0022733739218901887 
0.0009242326266517397 
-0.0009242326266525323 
-0.002273373921890836 
-0.002698282590477021 
-0.00015809948017228353 
2.9616067148046342e-05 
0.00010866580723411208 
-0.00010866580723438329 
-2.9616067148181976e-05 
0.00015809948017225057 
-1.9857102319722434e-05 
-6.55625383330457e-05 
-5.563398717319768e-05 
5.563398717316445e-05 
6.556253833303496e-05 
1.9857102319714628e-05 
-2.1578955757781907e-05 
-2.8417762629615582e-05 
-1.7628284750720942e-05 
1.7628284750746963e-05 
2.8417762629630544e-05 
2.1578955757774534e-05 
-3.2588048936681158e-06 
-5.9963430244743595e-06 
-4.366940577638431e-06 
4.36694057766082e-06 
5.996343024485418e-06 
3.258804893652937e-06 
-5.390550416725301e-07 
-8.056938331132404e-07 
-5.361663122861369e-07 
5.361663122793064e-07 
8.056938331199625e-07 
5.390550416629891e-07 
3.0849598702843706e-08 
1.780627857206167e-08 
2.3814792053932247e-09 
-2.3814792271043732e-09 
-1.7806278579542666e-08 
-3.084959873536977e-08 
2.698057289347508e-08 
4.179088018620592e-08 
2.830059373640551e-08 
-2.8300593737977603e-08 
-4.179088018143543e-08 
-2.69805728930414e-08 
8.952450271555723e-09 
1.360679434219119e-08 
9.130569196289591e-09 
-9.130569220006514e-09 
-1.3606794323542913e-08 
-8.952450227320274e-09 
1.613351733459334e-09 
2.6386675632027526e-09 
1.8319916895612968e-09 
-1.8319917024090925e-09 
-2.638667508016862e-09 
-1.6133516250391167e-09 
1.5482767628735572e-10 
2.6674786012849394e-10 
1.8933399765802984e-10 
-1.8933404652844276e-10 
-2.6674779225743794e-10 
-1.5482754011156286e-10 
-2.599153444554636e-11 
-3.312245941931857e-11 
-2.0126745742580186e-11 
2.01266078591689e-11 
3.3122479368638547e-11 
2.5991635926869705e-11 
-1.5577218768353385e-11 
-2.360256749159989e-11 
-1.5814039937582167e-11 
1.581375061823244e-11 
2.3602539410763623e-11 
1.5577413924744432e-11 
-4.147343492938438e-12 
-6.489539970937902e-12 
-4.416000497133726e-12 
4.41553813911727e-12 
6.489397235721894e-12 
4.147453647879162e-12 
-6.735141958036373e-13 
-1.1026384883275342e-12 
-7.659271437573945e-13 
7.65864151611173e-13 
1.1025852540008652e-12 
6.733506981160264e-13 
-3.6552792043176296e-14 
-7.178285743592028e-14 
-5.2988538036535804e-14 
5.494042720766146e-14 
7.278867179133508e-14 
3.6732335922939896e-14 
1.9862150119065447e-14 
2.8937735454398483e-14 
2.121028775791539e-14 
-1.3478435490106577e-14 
-2.4875446754529795e-14 
-1.8386767802747173e-14 
1.0164178526617107e-14 
1.7914977227390105e-14 
1.8942407863618838e-14 
2.098513962427162e-15 
-7.018149082715919e-15 
-6.01428629121159e-15 
6.5932502513188496e-15 
1.4698691482711856e-14 
2.431759763173169e-14 
2.0323017357534723e-14 
8.841451876184792e-15 
2.8679315866586563e-15 
8.449187530179536e-15 
1.9635931335776347e-14 
3.55312432037333e-14 
3.505517002979491e-14 
1.8918081077373694e-14 
7.965633361251001e-15 
8.319733790784767e-15 
1.6667982098705902e-14 
2.67706185995073e-14 
2.682298556443835e-14 
1.668023358325499e-14 
8.23950283002084e-15 
-8.390206931996325e-15 
-3.2094606920024527e-14 
-7.495154670522641e-14 
-7.47958552732575e-14 
-3.1925796641768533e-14 
-8.363969239422175e-15 
-7.670448477770098e-14 
-2.1525798721624967e-13 
-4.4089683076328767e-13 
-4.408495053384587e-13 
-2.1494611646133421e-13 
-7.617539411752805e-14 
-2.6539903087707817e-13 
-7.010382942554405e-13 
-1.3891728208297732e-12 
-1.3893392458632497e-12 
-7.008808680999956e-13 
-2.6475132849923533e-13 
-6.724956962828044e-13 
-1.710953264916909e-12 
-3.316054096353001e-12 
-3.3161703228258912e-12 
-1.7111049448008397e-12 
-6.725666031048849e-13 
-1.3381520284211357e-12 
-3.2666525734414975e-12 
-6.171547214245399e-12 
-6.171696400464333e-12 
-3.2668934831642238e-12 
-1.3383354754287202e-12 
-1.9113387088320888e-12 
-4.30751826352091e-12 
-7.704053893312426e-12 
-7.70439460384513e-12 
-4.307596705548089e-12 
-1.9108141718210403e-12 
-7.728930342953966e-13 
-4.477173297899595e-13 
9.017424326229588e-13 
9.01512852812935e-13 
-4.477138061328989e-13 
-7.724268273612278e-13 
6.7800912453841455e-12 
2.049515873854546e-11 
4.3515402984803126e-11 
4.3515362869322744e-11 
2.0495151582811122e-11 
6.780157164876233e-12 
3.132233014624397e-11 
8.490936030452687e-11 
1.7069204234190956e-10 
1.7069229203366988e-10 
8.490969022724795e-11 
3.13224906081655e-11 
9.112445455324025e-11 
2.360729105146779e-10 
4.6259461396154023e-10 
4.6259597805050354e-10 
2.360748158373657e-10 
9.112553702068926e-11 
2.050689329718275e-10 
5.11782871100543e-10 
9.805564262098843e-10 
9.8056267481937e-10 
5.117916844986879e-10 
2.0507406254914595e-10 
3.546662963316294e-10 
8.403195196160593e-10 
1.5567629333529918e-09 
1.5567804787799087e-09 
8.403454184954546e-10 
3.546830032365861e-10 
3.6768490032160206e-10 
7.370209430279141e-10 
1.1974539781850501e-09 
1.197455222279938e-09 
7.370269268210192e-10 
3.6769437971803653e-10 
-3.5419815247027947e-10 
-1.3798293806101172e-09 
-3.2332579848605263e-09 
-3.233614202384537e-09 
-1.3803351358514064e-09 
-3.544972279048361e-10 
-3.3300608853542232e-09 
-9.374989662591605e-09 
-1.922783271465008e-08 
-1.923044952151351e-08 
-9.378808748941939e-09 
-3.3324654443280324e-09 
-1.15852905748599e-08 
-3.063461891973651e-08 
-6.074612581432015e-08 
-6.075758092293745e-08 
-3.065157714107628e-08 
-1.1596296800304821e-08 
-2.9445860007682595e-08 
-7.492449322394506e-08 
-1.4526269068012096e-07 
-1.4528984864086992e-07 
-7.496629223012301e-08 
-2.947514209854056e-08 
-5.8750592319897765e-08 
-1.4341627622161128e-07 
-2.709688087104463e-07 
-2.7092249236274364e-07 
-1.433562807521627e-07 
-5.8723234076405936e-08 
-8.449422753771443e-08 
-1.905195001367663e-07 
-3.4027354600942866e-07 
-3.39344044685998e-07 
-1.8919304918679227e-07 
-8.37003282846277e-08 
-3.8028808133886045e-08 
-2.7005395666394806e-08 
3.0356536825350223e-08 
3.60632569369515e-08 
-1.858029381899076e-08 
-3.259204466228051e-08 
2.85127357056963e-07 
8.74597432856596e-07 
1.8819404420424555e-06 
1.9040800132000187e-06 
9.071874328483862e-07 
3.06028214725417e-07 
1.3375870936965383e-06 
3.6793963749002313e-06 
7.438127759845152e-06 
7.473375099009244e-06 
3.738556124767043e-06 
1.3854119151019773e-06 
4.117837866245502e-06 
1.047628061714779e-05 
2.0343258957493867e-05 
2.0150101700649504e-05 
1.0190437521275593e-05 
3.932466188189833e-06 
9.738198328616517e-06 
2.4088349397945327e-05 
4.413611278404151e-05 
4.178464567472328e-05 
2.08560403796109e-05 
7.976514510584128e-06 
2.339480203209998e-05 
4.6275458980407026e-05 
7.411090550441566e-05 
6.237016077681986e-05 
2.793262964017228e-05 
1.0190632806822089e-05 
2.7977785081731687e-05 
6.372218988638455e-05 
7.33298920057156e-05 
2.8626475230260356e-05 
5.388142213745503e-06 
7.165232873640947e-07 
0.00010372671022016942 
-3.5188314639186873e-06 
-0.0001532134423162611 
-0.00016397673001820144 
-8.210598806911734e-05 
-3.1921027586347196e-05 
-0.0012383021594284563 
-0.0011762899659282413 
-0.0009224245391200065 
-0.0005297647502961436 
-0.00019478848523643737 
-6.061877569257416e-05 
-0.0026615293338367865 
-0.002277670783158401 
-0.0014808863745893763 
-0.0007442462867829557 
-0.0002433013639481067 
-6.607067102903981e-05 
</DataArray>
<DataArray type="Float64" Name="Nodal_sigma_xy" NumberOfComponents="1" format="ascii" >
-0.0019376932343649293 
-0.000863394240339112 
0.0005822408575176726 
0.0005822408575175109 
-0.0008633942403395968 
-0.0019376932343655757 
-0.0009835826371249472 
-0.0006447368282758452 
-0.00011347185316578105 
-0.00011347185316589695 
-0.0006447368282761346 
-0.0009835826371252941 
-8.060527141010178e-05 
-0.0004073660845859015 
-0.000802331279713404 
-0.0008023312797134347 
-0.00040736608458593346 
-8.060527141010413e-05 
-0.0001800428784925201 
-0.00040796757821172727 
-0.000752010982546436 
-0.0007520109825464199 
-0.00040796757821169014 
-0.0001800428784924783 
-0.00024418877398373816 
-0.0004329468044482218 
-0.0006949588085643193 
-0.0006949588085642991 
-0.0004329468044481857 
-0.00024418877398370607 
-0.00026289367979738905 
-0.00043993777989384455 
-0.0006786153802118648 
-0.0006786153802118506 
-0.00043993777989381733 
-0.000262893679797363 
-0.0002660270890776372 
-0.00044141567908393504 
-0.0006755707763816492 
-0.000675570776381641 
-0.0004414156790839196 
-0.00026602708907762283 
-0.0002662500786370893 
-0.0004415624775143837 
-0.0006753124831714517 
-0.0006753124831714513 
-0.000441562477514383 
-0.00026625007863708864 
-0.0002661751774229445 
-0.0004415486538463144 
-0.0006753637574465735 
-0.0006753637574465716 
-0.00044154865384631145 
-0.00026617517742294255 
-0.00026613993067758554 
-0.00044153652414586074 
-0.0006753935105196641 
-0.0006753935105196583 
-0.00044153652414584643 
-0.0002661399306775686 
-0.00026613135736304136 
-0.00044153314900883964 
-0.0006754011723139443 
-0.0006754011723139437 
-0.00044153314900883384 
-0.00026613135736303095 
-0.000266130099822395 
-0.0004415325561120385 
-0.0006754023939810844 
-0.000675402393981074 
-0.00044153255611201767 
-0.00026613009982237416 
-0.00026613007056972433 
-0.00044153251403799523 
-0.0006754024506815255 
-0.000675402450681476 
-0.00044153251403790926 
-0.0002661300705696513 
-0.0002661301195121638 
-0.0004415325271585059 
-0.0006754024130898161 
-0.0006754024130897222 
-0.0004415325271583415 
-0.00026613011951202295 
-0.0002661301374727159 
-0.0004415325336181191 