<?xml version="1.0"?>
<VTKFile type="UnstructuredGrid" version="0.1" byte_order="LittleEndian" compressor="vtkZLibDataCompressor">
<UnstructuredGrid>
<Piece NumberOfPoints="306" NumberOfCells="250">
<PointData>
<DataArray type="Float64" Name="displacement" NumberOfComponents="3" format="ascii" >
0.0 0.0  0.
0.0 0.0  0.
0.0 0.0  0.
0.0 0.0  0.
0.0 0.0  0.
0.0 0.0  0.
0.00515890353335 -0.00348211865832  0.
0.00267910765943 -0.00122290221643  0.
0.000878601798858 -0.000337529874726  0.
-0.000888902302878 -0.000335128708797  0.
-0.00268987172737 -0.00121740128325  0.
-0.00517480606901 -0.00347264688498  0.
0.0103849881319 -0.00686146176775  0.
0.00600689903948 -0.00475958624415  0.
0.00193403231996 -0.00362286896349  0.
-0.00195824622764 -0.00361645792569  0.
-0.00603536684195 -0.00473997831934  0.
-0.0104211273898 -0.0068282489077  0.
0.0155669091096 -0.0123217115851  0.
0.00919985386637 -0.0102278318377  0.
0.0030233697401 -0.00915714393467  0.
-0.00306964307084 -0.009144524392  0.
-0.0092524509129 -0.0101899132102  0.
-0.0156323551851 -0.0122593568621  0.
0.0206881599824 -0.0198360086334  0.
0.0122865901596 -0.0177873440702  0.
0.00404909883636 -0.0167474807934  0.
-0.00412986667916 -0.0167272655075  0.
-0.0123760286691 -0.0177268519532  0.
-0.0207953533601 -0.0197358073714  0.
0.0257007109002 -0.0294021706774  0.
0.0152874107278 -0.0273889700446  0.
0.00503472781608 -0.0263670902195  0.
-0.00516702403745 -0.026337698432  0.
-0.0154305449031 -0.0273008363432  0.
-0.0258657753314 -0.0292553519611  0.
0.0305941929156 -0.0409696492497  0.
0.0182097258949 -0.0389896340529  0.
0.0059852893522 -0.0379795570054  0.
-0.00618996487142 -0.0379392797834  0.
-0.0184271303354 -0.0388686739396  0.
-0.0308370869871 -0.0407675250167  0.
0.0353651626115 -0.0544926021496  0.
0.0210534807379 -0.0525437875805  0.
0.00690129333782 -0.0515431616034  0.
-0.00720255900629 -0.0514903466267  0.
-0.021369111646 -0.0523850473236  0.
-0.0357094196137 -0.0542269914326  0.
0.0400119548055 -0.0699258877385  0.
0.0238173003452 -0.0680067550258  0.
0.00778150649155 -0.0670139810714  0.
-0.00820664094132 -0.0669470955925  0.
-0.0242582431854 -0.0678056581223  0.
-0.0404843510082 -0.0695892228563  0.
0.0445331478052 -0.0872248259796  0.
0.0264997243191 -0.0853339988746  0.
0.00862453189642 -0.084347698616  0.
-0.00920364978906 -0.0842653450034  0.
-0.0270959436586 -0.085086366987  0.
-0.0451633895464 -0.0868101794768  0.
0.0489274347128 -0.106344808135  0.
0.0290994216072 -0.104481034579  0.
0.00942905510417 -0.103499951954  0.
-0.0101948816469 -0.103400863199  0.
-0.0298835148244 -0.104183075113  0.
-0.0497478808361 -0.105845879371  0.
0.0531936204854 -0.127241244751  0.
0.0316151925099 -0.12540339002  0.
0.0101938817506 -0.12442638605  0.
-0.0111815236086 -0.124309419024  0.
-0.0326221483756 -0.125051678437  0.
-0.0542390290836 -0.126652339132  0.
0.0573306262864 -0.149869555362  0.
0.0340459589139 -0.148056600516  0.
0.0109179355521 -0.147082652084  0.
-0.0121646505017 -0.146946781904  0.
-0.0353129219118 -0.14764806556  0.
-0.0586379159267 -0.14918556439  0.
0.0613374880932 -0.174185168039  0.
0.0363907585331 -0.17239620735  0.
0.0116002550984 -0.171424404729  0.
-0.0131452239844 -0.171268720505  0.
-0.0379567990906 -0.171928119284  0.
-0.062945507907 -0.17340155175  0.
0.0652133539673 -0.200143519213  0.
0.0386487413338 -0.198377757288  0.
0.0122399909546 -0.197407301149  0.
-0.0141240941493 -0.197231002537  0.
-0.040554631971 -0.197847717941  0.
-0.0671626602841 -0.199256290239  0.
0.0689574811551 -0.227700053582  0.
0.0408191664859 -0.225956802412  0.
0.0128364027905 -0.224987000834  0.
-0.0151020021554 -0.224789394954  0.
-0.0431071638676 -0.225362736033  0.
-0.0712901199573 -0.226705762044  0.
0.0725692331882 -0.256810224138  0.
0.0429013993981 -0.255088900146  0.
0.0133888564378 -0.254119165669  0.
-0.0160795831372 -0.253899664148  0.
-0.0456150322774 -0.254429044543  0.
-0.0753285282756 -0.255705942853  0.
0.0760480769629 -0.287429492255  0.
0.0448949087573 -0.285729613358  0.
0.0138968209175 -0.284759460056  0.
-0.0170573691678 -0.284517576106  0.
-0.0480787718083 -0.285002511113  0.
-0.0792784238783 -0.286212802045  0.
0.0793935797938 -0.319513327812  0.
0.0467992635669 -0.31783451049  0.
0.0143598654697 -0.316863551044  0.
-0.0180357922181 -0.316598896529  0.
-0.0504988171025 -0.317039000158  0.
-0.0831402455717 -0.318182302812  0.
0.0826054064496 -0.353017209305  0.
0.0486141301839 -0.351359165668  0.
0.0147776565918 -0.350387108433  0.
-0.0190151871057 -0.350099390942  0.
-0.052875505761 -0.350494372975  0.
-0.0869143352262 -0.351570402274  0.
0.0856833161823 -0.387896623952  0.
0.0503392693572 -0.386259158809  0.
0.0151499550835 -0.385285804886  0.
-0.019995794437 -0.384974824787  0.
-0.0552090812663 -0.385324487831  0.
-0.0906009406838 -0.386333051562  0.
0.0886271597543 -0.42410706778  0.
0.0519745332663 -0.42249007571  0.
0.0154766130965 -0.421515316002  0.
-0.020977763546 -0.421180963508  0.
-0.0574996959074 -0.421485200044  0.
-0.0942002186696 -0.422426195907  0.
0.0914368764649 -0.461604045694  0.
0.0535198625608 -0.460007508117  0.
0.0157575711852 -0.459031320398  0.
-0.0219611554309 -0.458673572619  0.
-0.0597474137039 -0.458932362058  0.
-0.0977122377048 -0.459805774709  0.
0.0941124911794 -0.500343071547  0.
0.0549752834005 -0.498767053788  0.
0.0159928553585 -0.497789499765  0.
-0.0229459456906 -0.497408417768  0.
-0.0619522133315 -0.497621823501  0.
-0.101136981021 -0.498427721602  0.
0.0966541113584 -0.540279668179  0.
0.0563409044968 -0.538724316541  0.
0.0161825741326 -0.537745538918  0.
-0.0239320274617 -0.537341264785  0.
-0.064113991047 -0.537509431236  0.
-0.104474349474 -0.538247964499  0.
0.0990619240888 -0.581369367463  0.
0.0576169141545 -0.579834906295  0.
0.0163269155833 -0.578855125835  0.
-0.0249192143545 -0.578427879719  0.
-0.0662325636148 -0.578551029397  0.
-0.10772416446 -0.579222425634  0.
0.101336193116 -0.623567710329  0.
0.0588035773143 -0.622054439094  0.
0.0164261443995 -0.621073951681  0.
-0.0259072433892 -0.62062402887  0.
-0.0683076712321 -0.620702459422  0.
-0.110886170831 -0.62130702159  0.
0.103477255878 -0.666830246782  0.
0.0599012325966 -0.665338537125  0.
0.016480598937 -0.664357710833  0.
-0.026895777933 -0.663885478802  0.
-0.0703389804563 -0.663919560069  0.
-0.113960039811 -0.664457663323  0.
0.105485520537 -0.711112535907  0.
0.0609102893463 -0.709642828725  0.
0.0164906882718 -0.708662100877  0.
-0.0278844106363 -0.708167996351  0.
-0.0723260871312 -0.708158167423  0.
-0.116945371915 -0.708630256163  0.
0.107361463022 -0.756370145866  0.
0.0618312246777 -0.754922948375  0.
0.0164568892528 -0.753942822612  0.
-0.0288726663711 -0.753427348631  0.
-0.0742685193144 -0.753374114902  0.
-0.119841699864 -0.753780699824  0.
0.109105624064 -0.802558653883  0.
0.0626645805211 -0.801134536687  0.
0.0163797435521 -0.800155580035  0.
-0.0298600051723 -0.799619303019  0.
-0.0761657402043 -0.799523233248  0.
-0.122648491504 -0.799864888396  0.
0.110718606249 -0.849633646222  0.
0.06341096067 -0.848233240373  0.
0.0162598547092 -0.847256080317  0.
-0.0308458251848 -0.846699627142  0.
-0.0780171510686 -0.846561350519  0.
-0.125365152709 -0.846838710331  0.
0.112201071089 -0.897550718163  0.
0.0640710278293 -0.896174712226  0.
0.0160978851685 -0.895200033778  0.
-0.0318294656183 -0.894624088844  0.
-0.0798220941718 -0.894444292054  0.
-0.127991030273 -0.89465804841  0.
0.11355373611 -0.946265474021  0.
0.0646455006618 -0.944914611113  0.
0.0158945533185 -0.943943153865  0.
-0.0328102096997 -0.943348456141  0.
-0.0815798557033 -0.943127880409  0.
-0.130525414778 -0.943278779663  0.
0.11477737197 -0.995733527256  0.
0.0651351508324 -0.994408602079  0.
0.0156506305735 -0.993441157171  0.
-0.0337872875809 -0.992828497111  0.
-0.083289668706 -0.992567935169  0.
-0.132967543437 -0.992656775176  0.
0.115872799487 -1.0459105008  0.
0.0655408000423 -1.04461235667  0.
0.0153669386235 -1.04364976356  0.
-0.0347598790741 -1.04301997968  0.
-0.0849507160015 -1.04272027253  0.
-0.135316603007 -1.04274789967  0.
0.116840886313 -1.0967520277  0.
0.0658633170472 -1.09548155366  0.
0.0150443471383 -1.09452469648  0.
-0.0357271159222 -1.09387867124  0.
-0.0865621331123 -1.09354070442  0.
-0.137571733047 -1.0935080107  0.
0.117682542507 -1.14821375202  0.
0.0661036146571 -1.14697188028  0.
0.0146837724374 -1.14602168351  0.
-0.0366880830929 -1.14536033804  0.
-0.0881230111764 -1.14498503722  0.
-0.139732030271 -1.14489295761  0.
0.118398713559 -1.20025132876  0.
0.0662626467551 -1.19903903305  0.
0.0142861777065 -1.19809645681  0.
-0.0376418185282 -1.1974207448  0.
-0.0896323998551 -1.19700907072  0.
-0.141796555486 -1.19685858122  0.
0.118990368893 -1.25282041916  0.
0.0663414054832 -1.25163871512  0.
0.0138525744508 -1.25070475202  0.
-0.0385873117431 -1.2500156559  0.
-0.091089310258 -1.24956860071  0.
-0.143764345324 -1.24936071791  0.
0.119458485186 -1.30587667172  0.
0.0663409190333 -1.30472662036  0.
0.0133840209447 -1.30380230124  0.
-0.0395235057874 -1.30310084232  0.
-0.0924927179905 -1.30261943476  0.
-0.145634429891 -1.30235521782  0.
0.11980403223 -1.35937566972  0.
0.0662622511004 -1.35825838381  0.
0.012881602197 -1.35734481003  0.
-0.0404493188469 -1.35663210302  0.
-0.0938415666645 -1.35611744192  0.
-0.147405849429 -1.35579799675  0.
0.120027995912 -1.41327281849  0.
0.0661065040583 -1.41218946228  0.
0.0123463509376 -1.41128790159  0.
-0.041363727695 -1.41056531468  0.
-0.0951347730065 -1.41001867228  0.
-0.149077635606 -1.40964515091  0.
0.12013153528 -1.46752315558  0.
0.0658748288746 -1.46647491205  0.
0.0117790257644 -1.46558700738  0.
-0.0422659989541 -1.46485652521  0.
-0.0963712352108 -1.46427957801  0.
-0.150648656374 -1.46385315168  0.
0.120116503641 -1.52208118172  0.
0.065568436441 -1.52106908722  0.
0.0111796099886 -1.52019724381  0.
-0.0431561859959 -1.51946206818  0.
-0.0975498455679 -1.51885729156  0.
-0.152117086433 -1.5183790128  0.
0.119986714606 -1.5769009972  0.
0.0651885490065 -1.57592565111  0.
0.0105463962006 -1.57507344043  0.
-0.0440359162714 -1.57433867307  0.
-0.0986694458364 -1.57370953414  0.
-0.153479150258 -1.57317997419  0.
0.11975087042 -1.63193840525  0.
0.0647359180212 -1.63099864565  0.
0.00987464580503 -1.63017159265  0.
-0.0449087061694 -1.62944311315  0.
-0.099728517877 -1.62879300543  0.
-0.154726838826 -1.62821107128  0.
0.119427007865 -1.6871549664  0.
0.0642084077796 -1.68625004207  0.
0.00915620619668 -1.6854520817  0.
-0.0457775445579 -1.68473217977  0.
-0.100723070161 -1.68405676538  0.
-0.155846694172 -1.683418137  0.
0.119056707234 -1.74255278144  0.
0.0635936524135 -1.74165970777  0.
0.00838295625629 -1.74089797406  0.
-0.0466291197805 -1.74015261574  0.
-0.101644467375 -1.73942783064  0.
-0.156825477181 -1.73872620815  0.
0.118678715532 -1.7981583926  0.
0.0628458277284 -1.79734675474  0.
0.007613622549 -1.79647546911  0.
-0.0474243615008 -1.79560669306  0.
-0.102482090533 -1.79479732748  0.
-0.157671808931 -1.79403595765  0.
0.118370313751 -1.8551481259  0.
0.0622451071537 -1.85328979619  0.
0.0069640807517 -1.85193795259  0.
-0.0481387791079 -1.85089697095  0.
-0.103249568081 -1.85004436752  0.
-0.158445906879 -1.84927091234  0.
</DataArray>
<DataArray type="Float64" Name="Nodal_sigma_xx" NumberOfComponents="1" format="ascii" >
0.0047182607657 
0.00345332534048 
0.00109032017982 
-0.00110431741099 
-0.00346129477105 
-0.00472170427573 
0.00460556091756 
0.00344414782186 
0.00113756568567 
-0.00115141918056 
-0.00345261748086 
-0.00460999995542 
0.00446338184876 
0.00338876183874 
0.00115350134698 
-0.00116662106443 
-0.00339749192964 
-0.00446888086519 
0.00439148560792 
0.003303466453 
0.00110442082665 
-0.00111659035203 
-0.00331166844969 
-0.0043967618401 
0.00430383263832 
0.00322842083338 
0.0010733788169 
-0.00108490629725 
-0.00323601561815 
-0.00430847003643 
0.00421215758912 
0.0031573934679 
0.00104833246949 
-0.00105928099222 
-0.00316436815639 
-0.00421613873604 
0.00411908970916 
0.00308738909949 
0.00102501890449 
-0.00103534626942 
-0.00309377935571 
-0.0041225168534 
0.00402579854282 
0.00301752086652 
0.00100196743657 
-0.0010116322771 
-0.00302335880036 
-0.00402876136359 
0.00393246911384 
0.00294764759972 
0.000978937293702 
-0.000987923049764 
-0.00295295727218 
-0.00393501994303 
0.00383913268121 
0.00287776106885 
0.00095589818119 
-0.000964207139788 
-0.00288255989048 
-0.00384129859548 
0.00374579204585 
0.00280786617385 
0.000932850214279 
-0.000940494238765 
-0.0028121681539 
-0.00374758770357 
0.00365244786808 
0.00273796519689 
0.000909793948511 
-0.00091678864096 
-0.00274178295021 
-0.00365388324718 
0.00355910034924 
0.00266805877127 
0.000886729495232 
-0.000893091505918 
-0.00267140449297 
-0.00356018417695 
0.00346574949217 
0.00259814701802 
0.000863656914628 
-0.000869402987816 
-0.00260103284404 
-0.00346649042707 
0.00337239523716 
0.00252822995058 
0.000840576285216 
-0.000845723036362 
-0.0025306680519 
-0.00337280212464 
0.00327903753995 
0.00245830757252 
0.000817487671513 
-0.000822051597683 
-0.00246031015864 
-0.00327911938398 
0.00318567638572 
0.00238837989254 
0.000794391113091 
-0.000798388643896 
-0.00238995919609 
-0.00318544227756 
0.00309231177905 
0.00231844692259 
0.000771286630439 
-0.000774734165639 
-0.00231961518665 
-0.00309177084729 
0.00299894373221 
0.00224850867469 
0.000748174233382 
-0.000751088162318 
-0.0022492781459 
-0.00299810511756 
0.00290557225788 
0.0021785651589 
0.000725053926702 
-0.000727450636174 
-0.00217894808452 
-0.00290444510321 
0.00281219736578 
0.0021086163825 
0.000701925712888 
-0.000703821589535 
-0.00210862500944 
-0.00281079081324 
0.00271881906154 
0.0020386623496 
0.000678789593196 
-0.000680201023825 
-0.00203830892428 
-0.00271714225217 
0.00262543734649 
0.00196870306123 
0.000655645567954 
-0.000656588939334 
-0.00196799982959 
-0.00262349942057 
0.00253205221783 
0.00189873851537 
0.000632493636611 
-0.000632985335229 
-0.00189769772298 
-0.00252986231519 
0.00243866366875 
0.00182876870708 
0.000609333797745 
-0.000609390209625 
-0.00182740259918 
-0.00243623092904 
0.00234527168863 
0.00175879362858 
0.000586166049089 
-0.000585803559619 
-0.0017571144502 
-0.00234260525153 
0.00225187626308 
0.00168881326938 
0.000562990387577 
-0.000562225381317 
-0.00168683326537 
-0.00224898526864 
0.0021584773742 
0.00161882761637 
0.000539806809338 
-0.00053865566991 
-0.00161655903148 
-0.00215537096301 
0.00206507500096 
0.00154883665406 
0.000516615309439 
-0.000515094419986 
-0.00154629173273 
-0.00206176231376 
0.00197166912065 
0.00147884036501 
0.000493415880929 
-0.000491541626566 
-0.00147603135047 
-0.00196815929534 
0.00187825971225 
0.00140883873089 
0.00047020851233 
-0.00046799728767 
-0.00140577786243 
-0.0018745618744 
0.0017848467633 
0.00133883173424 
0.00044699318256 
-0.000444461409461 
-0.00133553124103 
-0.00178097000321 
0.00169143028037 
0.00126881936095 
0.000423769853508 
-0.000420934013733 
-0.00126529145121 
-0.00168738360946 
0.00159801029569 
0.00119880160064 
0.000400538466466 
-0.000397415141589 
-0.00119505845018 
-0.00159380258986 
0.00150458684047 
0.00112877843635 
0.000377298966262 
-0.000373904829445 
-0.00112483219825 
-0.0015002268373 
0.00141115980251 
0.00105874980014 
0.000354051417359 
-0.000350402993199 
-0.00105461270364 
-0.00140665638392 
0.00131772848996 
0.000988715448577 
0.000330796347487 
-0.00032690908492 
-0.000984400148107 
-0.00131309183859 
0.00122429060895 
0.00091867468945 
0.000307535533163 
-0.000303421307356 
-0.000914195161206 
-0.00121953541132 
0.00113084039799 
0.000848625924878 
0.000284273389547 
-0.000279935223059 
-0.000843999277374 
-0.0011259927813 
0.00103736639485 
0.000778566226874 
0.000261018510756 
-0.000256442215033 
-0.000773815359671 
-0.00103247532666 
0.000943852097838 
0.000708491997442 
0.000237782695057 
-0.000232930499133 
-0.000703646955625 
-0.000938999419914 
0.000850290128304 
0.000638403903179 
0.000214569070989 
-0.000209397258264 
-0.000633493504548 
-0.000845572028646 
0.000756736238011 
0.000568323281124 
0.000191329296144 
-0.000185892446027 
-0.000563334539706 
-0.000752135919307 
0.000663452751796 
0.000498333329454 
0.000167851862357 
-0.000162632454563 
-0.000493089714268 
-0.000658424701807 
0.000571220420021 
0.00042865244028 
0.000143527157966 
-0.00014022482171 
-0.000422539795084 
-0.000563660091353 
0.00048182937144 
0.000359719727134 
0.000116952374994 
-0.000119963691295 
-0.000351177114504 
-0.000466132179261 
0.000398774982741 
0.00029196598884 
8.54222618292e-05 
-0.00010368611445 
-0.000278044551849 
-0.000363029346079 
0.000326115000937 
0.000224975711232 
4.51161471104e-05 
-9.18860132341e-05 
-0.000201352020705 
-0.000252536142249 
0.000267429199492 
0.000152227285853 
-5.71117668351e-06 
-7.50302548339e-05 
-0.000121146119837 
-0.000140679455587 
0.0001691884441 
7.27344368997e-05 
-2.91698297617e-05 
-4.06399245616e-05 
-4.85285815761e-05 
-5.03974032517e-05 
9.63471063059e-05 
3.25454146741e-05 
-2.46669514318e-05 
-1.82030105828e-05 
-1.65847896818e-05 
-1.48411841038e-05 
</DataArray>
<DataArray type="Float64" Name="Nodal_sigma_yy" NumberOfComponents="1" format="ascii" >
0.00115332515166 
0.000886976039867 
0.000307890809775 
-0.000316306110259 
-0.000891459576641 
-0.00115515224128 
0.000544036254253 
0.000456284817247 
0.000181518702865 
-0.000191174322361 
-0.000461676624729 
-0.000546500579248 
-3.4034642725e-05 
2.26666154918e-06 
1.60592541348e-05 
-2.77069087728e-05 
-9.5164207728e-06 
2.99315184463e-05 
-6.47608789195e-06 
-1.73030854908e-05 
-1.74967736388e-05 
4.85914227621e-06 
8.98137468765e-06 
1.38100063501e-06 
-6.85678235736e-06 
-9.8852654136e-06 
-9.91138596896e-06 
-2.8221920368e-06 
1.55128605035e-06 
1.83793270622e-06 
-3.08564045426e-06 
-5.24354982161e-06 
-7.04728841548e-06 
-5.26607327407e-06 
-2.7938294388e-06 
-1.74862997147e-06 
-2.42154844049e-06 
-4.00595709504e-06 
-5.98551224403e-06 
-5.75185637151e-06 
-3.65260429438e-06 
-2.18215458423e-06 
-2.19341638717e-06 
-3.64800522447e-06 
-5.58323968866e-06 
-5.5731827332e-06 
-3.63641462835e-06 
-2.19034910586e-06 
-2.08804370862e-06 
-3.46420790689e-06 
-5.30271382783e-06 
-5.30633747958e-06 
-3.46713696876e-06 
-2.08665452885e-06 
-1.99120673495e-06 
-3.30178243773e-06 
-5.04834540888e-06 
-5.04543837353e-06 
-3.2952546807e-06 
-1.98396529159e-06 
-1.89604999553e-06 
-3.14324872091e-06 
-4.80360789599e-06 
-4.79830767505e-06 
-3.13325339974e-06 
-1.88665979505e-06 
-1.80261918816e-06 
-2.98826570585e-06 
-4.56628171325e-06 
-4.56072123303e-06 
-2.97804951448e-06 
-1.79330776586e-06 
-1.71145464586e-06 
-2.83721141279e-06 
-4.33550099871e-06 
-4.33022746445e-06 
-2.82755847142e-06 
-1.70269583167e-06 
-1.62264425001e-06 
-2.69009554998e-06 
-4.1108365739e-06 
-4.10592072266e-06 
-2.68110116856e-06 
-1.61448718966e-06 
-1.5361929953e-06 
-2.54688308439e-06 
-3.89213086763e-06 
-3.88755958053e-06 
-2.53852024987e-06 
-1.52860990046e-06 
-1.4521008938e-06 
-2.40756786712e-06 
-3.67936052758e-06 
-3.67511403802e-06 
-2.39980102642e-06 
-1.44506019153e-06 
-1.37037158914e-06 
-2.27215861928e-06 
-3.4725421411e-06 
-3.46860275004e-06 
-2.26495558035e-06 
-1.36384429341e-06 
-1.29100845728e-06 
-2.14066433366e-06 
-3.27169383819e-06 
-3.26804518031e-06 
-2.13399506605e-06 
-1.28496723781e-06 
-1.21401330897e-06 
-2.01309022108e-06 
-3.07682644799e-06 
-3.07345284625e-06 
-2.00692587817e-06 
-1.20843182664e-06 
-1.13938670888e-06 
-1.88943836775e-06 
-2.88794473113e-06 
-2.88483101024e-06 
-1.88375101338e-06 
-1.13423944195e-06 
-1.06712856376e-06 
-1.76970916712e-06 
-2.70505013675e-06 
-2.70218159284e-06 
-1.76447173243e-06 
-1.0623907822e-06 
-9.97238517427e-07 
-1.65390230877e-06 
-2.52814271454e-06 
-2.52550511492e-06 
-1.64908859257e-06 
-9.92886284262e-07 
-9.29716140793e-07 
-1.5420172688e-06 
-2.35722207286e-06 
-2.35480165771e-06 
-1.53760194095e-06 
-9.25726315404e-07 
-8.64561005748e-07 
-1.4340535025e-06 
-2.19228776062e-06 
-2.19007124389e-06 
-1.43001210534e-06 
-8.60911244863e-07 
-8.01772706178e-07 
-1.33001050181e-06 
-2.03333938278e-06 
-2.03131395259e-06 
-1.32631944976e-06 
-7.98441462466e-07 
-7.41350855741e-07 
-1.2298877925e-06 
-1.8803765972e-06 
-1.87852991574e-06 
-1.22652437304e-06 
-7.38317379722e-07 
-6.83295068645e-07 
-1.13368487625e-06 
-1.73339899469e-06 
-1.73171919935e-06 
-1.13062725151e-06 
-6.80539409856e-07 
-6.27604890552e-07 
-1.04140104815e-06 
-1.59240573604e-06 
-1.59088143986e-06 
-1.03862825531e-06 
-6.25107897235e-07 
-5.74279623109e-07 
-9.53034945821e-07 
-1.45739467507e-06 
-1.45601496785e-06 
-9.50526898641e-07 
-5.72022943193e-07 
-5.23317963162e-07 
-8.68583661458e-07 
-1.32836067284e-06 
-1.32711512111e-06 
-8.66321151055e-07 
-5.21284045812e-07 
-4.74717455768e-07 
-7.88041485808e-07 
-1.20529332192e-06 
-1.20417196641e-06 
-7.86006176686e-07 
-4.7288954855e-07 
-4.2847415945e-07 
-7.11399440234e-07 
-1.08817648822e-06 
-1.08716983185e-06 
-7.09573848635e-07 
-4.26836288985e-07 
-3.84584120895e-07 
-6.38649897194e-07 
-9.76998273547e-07 
-9.76097243276e-07 
-6.37017327339e-07 
-3.83121041727e-07 
-3.43051075757e-07 
-5.69807666527e-07 
-8.71793610753e-07 
-8.70989476896e-07 
-5.68352074268e-07 
-3.41748158952e-07 
-3.03909889263e-07 
-5.04971181779e-07 
-7.72764608175e-07 
-7.72048858223e-07 
-5.03676958739e-07 
-3.02752943086e-07 
-2.67281291881e-07 
-4.4446021286e-07 
-6.80545585454e-07 
-6.7990983661e-07 
-4.43312027927e-07 
-2.66256419705e-07 
-2.33471255827e-07 
-3.89054597151e-07 
-5.96649084084e-07 
-5.96085386382e-07 
-3.88037870162e-07 
-2.32565197254e-07 
-2.03088851639e-07 
-3.40244115801e-07 
-5.23892277479e-07 
-5.23394520209e-07 
-3.39347330224e-07 
-2.02290795027e-07 
-1.77005850606e-07 
-3.00000775178e-07 
-4.65806247915e-07 
-4.65371810793e-07 
-2.99218851092e-07 
-1.76310876677e-07 
-1.55596730205e-07 
-2.68570470409e-07 
-4.22043923909e-07 
-4.21660258436e-07 
-2.67886839675e-07 
-1.54996799682e-07 
-1.35846440978e-07 
-2.3676350398e-07 
-3.72916424216e-07 
-3.72448305238e-07 
-2.35990442272e-07 
-1.3523655552e-07 
-1.03898171964e-07 
-1.66293814107e-07 
-2.40781996209e-07 
-2.39528486944e-07 
-1.64391932321e-07 
-1.02601426924e-07 
-1.83023649612e-08 
5.00026595123e-08 
1.85924414446e-07 
1.90070312903e-07 
5.61025949399e-08 
-1.43942910196e-08 
2.13325733221e-07 
6.50229320045e-07 
1.36166608568e-06 
1.36733676156e-06 
6.59990282841e-07 
2.21506307051e-07 
7.95841335194e-07 
2.06509519113e-06 
4.03887391226e-06 
3.99550993301e-06 
2.00098901762e-06 
7.54356946669e-07 
1.96466851459e-06 
4.88745599205e-06 
8.97174193373e-06 
8.48549583352e-06 
4.21813112683e-06 
1.59851098458e-06 
4.78578883289e-06 
9.51967820568e-06 
1.52852726646e-05 
1.28798812311e-05 
5.76825586337e-06 
2.09372701512e-06 
5.89554683769e-06 
1.33674356273e-05 
1.56171510701e-05 
6.45387659653e-06 
1.37775259253e-06 
2.42729715211e-07 
2.14350841427e-05 
4.29273198847e-07 
-2.94473749991e-05 
-3.22520254333e-05 
-1.62604147862e-05 
-6.33499095908e-06 
-0.0002481187999 
-0.000236079580604 
-0.000185693110964 
-0.000106899538254 
-3.93373836222e-05 
-1.22215513577e-05 
-0.000534169479876 
-0.000458590942624 
-0.000299749444617 
-0.00015094954391 
-4.9403909266e-05 
-1.33952145742e-05 
</DataArray>
<DataArray type="Float64" Name="Nodal_sigma_xy" NumberOfComponents="1" format="ascii" >
-0.000389469944302 
-0.000173483363779 
0.000117388639725 
0.000117780716005 
-0.000172646579423 
-0.00038858052815 
-0.000197890518368 
-0.000129535542266 
-2.23384015604e-05 
-2.20084523244e-05 
-0.000128709912911 
-0.000196899158131 
-1.62733857307e-05 
-8.16720281494e-05 
-0.000160639473485 
-0.000160461774811 
-8.12202020156e-05 
-1.57251308104e-05 
-3.58839338197e-05 
-8.1567825624e-05 
-0.000150475670875 
-0.000150452566302 
-8.15816164743e-05 
-3.59577246673e-05 
-4.87366131504e-05 
-8.65277986767e-05 
-0.00013901095494 
-0.000139047244621 
-8.66206598067e-05 
-4.88497560486e-05 
-5.25504076447e-05 
-8.79691222864e-05 
-0.000135733052233 
-0.000135742021358 
-8.79909807625e-05 
-5.25761863479e-05 
-5.32335710242e-05 
-8.83100010887e-05 
-0.000135128448039 
-0.000135098061859 
-8.82525752836e-05 
-5.3179491772e-05 
-5.33057429673e-05 
-8.83650436243e-05 
-0.000135082968854 
-0.000135026820347 
-8.82601921296e-05 
-5.32083369909e-05 
-5.33005024666e-05 
-8.83724243905e-05 
-0.00013509641026 
-0.000135028591589 
-8.82473972085e-05 
-5.31860854449e-05 
-5.32951088988e-05 
-8.83719722845e-05 
-0.000135102583943 
-0.000135031443091 
-8.82417963645e-05 
-5.31770387632e-05 
-5.32921089665e-05 
-8.83699004447e-05 
-0.000135102667952 
-0.000135031936722 
-8.82409512167e-05 
-5.31756729691e-05 
-5.32897562038e-05 
-8.8367298533e-05 
-0.000135100780964 
-0.00013503173991 
-8.82416237806e-05 
-5.31764888076e-05 
-5.32875440465e-05 
-8.83645849334e-05 
-0.000135098453394 
-0.000135031376525 
-8.8242546215e-05 
-5.31776203464e-05 
-5.328540841e-05 
-8.8361902232e-05 
-0.00013509606142 
-0.000135030914861 
-8.82433859436e-05 
-5.31786689513e-05 
-5.32833261474e-05 
-8.83592637893e-05 
-0.000135093660563 
-0.00013503036511 
-8.82441118027e-05 
-5.31796130807e-05 
-5.32812695745e-05 
-8.83566457455e-05 
-0.000135091244751 
-0.000135029745278 
-8.82447568448e-05 
-5.31804907202e-05 
-5.32792180161e-05 
-8.83540268875e-05 
-0.000135088805703 
-0.000135029074542 
-8.82453527145e-05 
-5.31813319921e-05 
-5.32771612942e-05 
-8.83513968335e-05 
-0.000135086341441 
-0.000135028367652 
-8.82459191958e-05 
-5.31821535958e-05 
-5.32750965718e-05 
-8.83487533444e-05 
-0.000135083854688 
-0.000135027635057 
-8.82464673376e-05 
-5.31829638199e-05 
-5.32730246672e-05 
-8.83460983909e-05 
-0.000135081350512 
-0.000135026884612 
-8.8247003636e-05 
-5.31837669583e-05 
-5.32709477699e-05 
-8.83434355908e-05 
-0.000135078834841 
-0.000135026122922 
-8.82475326656e-05 
-5.31845657568e-05 
-5.32688683916e-05 
-8.83407689763e-05 
-0.000135076313746 
-0.000135025356049 
-8.82480583247e-05 
-5.31853624838e-05 
-5.32667889995e-05 
-8.83381025341e-05 
-0.000135073793169 
-0.000135024589784 
-8.82485842977e-05 
-5.31861592973e-05 
-5.32647119394e-05 
-8.83354400913e-05 
-0.000135071278843 
-0.000135023829731 
-8.82491141696e-05 
-5.31869583207e-05 
-5.32626394548e-05 
-8.83327853228e-05 
-0.000135068776292 
-0.000135023081304 
-8.82496514187e-05 
-5.3187761623e-05 
-5.32605737248e-05 
-8.83301417847e-05 
-0.000135066290849 
-0.000135022349719 
-8.82501993833e-05 
-5.31885711813e-05 
-5.32585168776e-05 
-8.83275129171e-05 
-0.000135063827646 
-0.000135021639994 
-8.825076126e-05 
-5.31893888671e-05 
-5.32564709071e-05 
-8.83249019239e-05 
-0.000135061391542 
-0.000135020957029 
-8.82513402228e-05 
-5.31902165297e-05 
-5.32544373134e-05 
-8.8322311329e-05 
-0.000135058986854 
-0.000135020305873 
-8.8251939869e-05 
-5.31910563558e-05 
-5.32524161149e-05 
-8.83197418339e-05 
-0.000135056616716 
-0.000135019692372 
-8.82525653608e-05 
-5.31919118574e-05 
-5.32504037335e-05 
-8.83171900258e-05 
-0.000135054281836 
-0.000135019124401 
-8.82532257175e-05 
-5.31927899855e-05 
-5.32483895879e-05 
-8.83146450497e-05 
-0.000135051978873 
-0.000135018613487 
-8.82539371383e-05 
-5.3193704537e-05 
-5.32463532993e-05 
-8.83120870639e-05 
-0.000135049700278 
-0.000135018174923 
-8.82547245318e-05 
-5.31946789455e-05 
-5.32442710902e-05 
-8.83094982657e-05 
-0.000135047442091 
-0.000135017819887 
-8.82556104574e-05 
-5.31957398816e-05 
-5.32421561079e-05 
-8.83069154282e-05 
-0.000135045236264 
-0.000135017522953 
-8.82565625265e-05 
-5.31968769248e-05 
-5.32401880667e-05 
-8.8304584863e-05 
-0.000135043240755 
-0.000135017131836 
-8.82573383553e-05 
-5.31979128893e-05 
-5.32390275688e-05 
-8.83033156553e-05 
-0.000135041935669 
-0.000135016171397 
-8.82571322558e-05 
-5.31981893137e-05 
-5.32404128623e-05 
-8.83051022556e-05 
-0.000135042447941 
-0.00013501352035 
-8.82539527441e-05 
-5.31959690207e-05 
-5.32479399134e-05 
-8.83138065462e-05 
-0.000135046844137 
-0.00013500712158 
-8.82439417881e-05 
-5.31876555116e-05 
-5.32671218229e-05 
-8.83346846639e-05 
-0.000135057623648 
-0.000134994483929 
-8.82218569335e-05 
-5.31677458e-05 
-5.33016104306e-05 
-8.83689470775e-05 
-0.000135074128259 
-0.000134976189718 
-8.81865598756e-05 
-5.31327131091e-05 
-5.3337695086e-05 
-8.83942663302e-05 
-0.000135080621979 
-0.000134967388924 
-8.81606975173e-05 
-5.30970235709e-05 
-5.33013492414e-05 
-8.83142390767e-05 
-0.000135016783108 
-0.000135026103834 
-8.82416854662e-05 
-5.31376005675e-05 
-5.29632402273e-05 
-8.78545599641e-05 
-0.000134722351578 
-0.000135309375031 
-8.87045106552e-05 
-5.3489094702e-05 
-5.17664273837e-05 
-8.64014771873e-05 
-0.000133876562623 
-0.000136164843673 
-9.01483107647e-05 
-5.46835324392e-05 
-4.85630649489e-05 
-8.28656030887e-05 
-0.000132097915198 
-0.000138250992998 
-9.3527994529e-05 
-5.75816922304e-05 
-4.13045345491e-05 
-7.59717974605e-05 
-0.000129728891634 
-0.00014264497736 
-9.95243036446e-05 
-6.25773754643e-05 
-2.72381843792e-05 
-6.61043843814e-05 
-0.000130657530258 
-0.000150288664133 
-0.000105624379974 
-6.70159078147e-05 
-7.36582929513e-06 
-6.54040490118e-05 
-0.000145328694236 
-0.000153569941033 
-0.000100885235161 
-6.18457079994e-05 
-7.94983419458e-05 
-0.000113641623489 
-0.0001431013585 
-0.000118233304188 
-6.70511338899e-05 
-3.60534713709e-05 
-0.000162401965468 
-0.000157148717922 
-0.000128334346126 
-8.43216436209e-05 
-4.0372346286e-05 
-1.68746272072e-05 
</DataArray>
</PointData>
<CellData>
</CellData>
<Points>
<DataArray type="Float64" Name="Points" NumberOfComponents="3" format="ascii">
0.0 10.0 0.0
0.0 8.0 0.0
0.0 6.0 0.0
0.0 4.0 0.0
0.0 2.0 0.0
0.0 0.0 0.0
2.0 10.0 0.0
2.0 8.0 0.0
2.0 6.0 0.0
2.0 4.0 0.0
2.0 2.0 0.0
2.0 0.0 0.0
4.0 10.0 0.0
4.0 8.0 0.0
4.0 6.0 0.0
4.0 4.0 0.0
4.0 2.0 0.0
4.0 0.0 0.0
6.0 10.0 0.0
6.0 8.0 0.0
6.0 6.0 0.0
6.0 4.0 0.0
6.0 2.0 0.0
6.0 0.0 0.0
8.0 10.0 0.0
8.0 8.0 0.0
8.0 6.0 0.0
8.0 4.0 0.0
8.0 2.0 0.0
8.0 0.0 0.0
10.0 10.0 0.0
10.0 8.0 0.0
10.0 6.0 0.0
10.0 4.0 0.0
10.0 2.0 0.0
10.0 0.0 0.0