<?xml version="1.0"?>
<VTKFile type="UnstructuredGrid" version="0.1" byte_order="LittleEndian" compressor="vtkZLibDataCompressor">
<UnstructuredGrid>
<Piece NumberOfPoints="306" NumberOfCells="250">
<PointData>
<DataArray type="Float64" Name="displacement" NumberOfComponents="3" format="ascii" >
0.0 0.0  0.
0.0 0.0  0.
0.0 0.0  0.
0.0 0.0  0.
0.0 0.0  0.
0.0 0.0  0.
0.19471398904498297 -0.13001613953803862  0.
0.10125693058105022 -0.04590914298035918  0.
0.033331899510628975 -0.013039781773134756  0.
-0.03333189951063385 -0.013039781773135597  0.
-0.10125693058105523 -0.04590914298036193  0.
-0.1947139890449895 -0.13001613953804428  0.
0.3916220572771771 -0.2567977162374214  0.
0.22673848030714097 -0.17872253173242866  0.
0.07329982645658151 -0.13660362783248048  0.
-0.07329982645659226 -0.13660362783248187  0.
-0.22673848030715218 -0.17872253173243297  0.
-0.3916220572771893 -0.2567977162374286  0.
0.587069222609347 -0.46169673092014163  0.
0.3472577645762332 -0.3841253427377572  0.
0.11467561747175514 -0.34469694942908413  0.
-0.11467561747177225 -0.3446969494290857  0.
-0.3472577645762507 -0.38412534273776194  0.
-0.5870692226093649 -0.46169673092014935  0.
0.7804535641476115 -0.7436889542911458  0.
0.46402508316752383 -0.6680915175122853  0.
0.15389376762943635 -0.6300960563475669  0.
-0.15389376762945986 -0.6300960563475686  0.
-0.46402508316754754 -0.66809151751229  0.
-0.7804535641476353 -0.7436889542911536  0.
0.9700457162488026 -1.1026808438471198  0.
0.5778798667059006 -1.0287608477884076  0.
0.1919251833209158 -0.9917804214917013  0.
-0.19192518332094563 -0.991780421491703  0.
-0.5778798667059306 -1.0287608477884123  0.
-0.9700457162488325 -1.1026808438471276  0.
1.155528631559248 -1.5367706040729316  0.
0.6891685759002069 -1.4645076134797257  0.
0.22903076662148347 -1.4283759495915422  0.
-0.22903076662151947 -1.4283759495915438  0.
-0.6891685759002429 -1.4645076134797301  0.
-1.155528631559284 -1.5367706040729392  0.
1.3368417673896313 -2.0442410263377875  0.
0.7979514817157103 -1.9736211376548733  0.
0.2652918809097497 -1.9383124137584493  0.
-0.2652918809097919 -1.9383124137584509  0.
-0.7979514817157525 -1.9736211376548776  0.
-1.3368417673896735 -2.044241026337795  0.
1.5139841153993276 -2.6234042754509272  0.
0.9042352389248104 -2.55442665227666  0.
0.3007193341137663 -2.519938215974618  0.
-0.3007193341138145 -2.5199382159746198  0.
-0.9042352389248588 -2.5544266522766645  0.
-1.513984115399376 -2.623404275450935  0.
1.6869574960974216 -3.2725904973745488  0.
1.0080189385615752 -3.2052550938790954  0.
0.3353137490934738 -3.171587469158795  0.
-0.3353137490935282 -3.171587469158797  0.
-1.0080189385616294 -3.2052550938791  0.
-1.6869574960974763 -3.2725904973745563  0.
1.8557626692852693 -3.990132257190022  0.
1.1093020075982096 -3.924439154670052  0.
0.36907474074636254 -3.8915926111514985  0.
-0.369074740746423 -3.8915926111515002  0.
-1.10930200759827 -3.9244391546700568  0.
-1.8557626692853302 -3.9901322571900297  0.
2.0203997952153876 -4.774362430870133  0.
1.208084286646823 -4.710311651000727  0.
0.4020021637730174 -4.678286260231154  0.
-0.402002163773084 -4.678286260231156  0.
-1.20808428664689 -4.7103116510007315  0.
-2.020399795215454 -4.774362430870141  0.
2.1808688947637855 -5.623613841431978  0.
1.3043657491850353 -5.561205388927858  0.
0.4340959849209394 -5.530001162012743  0.
-0.43409598492101154 -5.530001162012743  0.
-1.3043657491851082 -5.561205388927861  0.
-2.180868894763858 -5.623613841431984  0.
2.33716996729359 -6.536219285854777  0.
1.3981463934948857 -6.475453161147684  0.
0.4653561999536082 -6.445070098610267  0.
-0.46535619995368466 -6.445070098610267  0.
-1.3981463934949643 -6.475453161147685  0.
-2.3371699672936694 -6.5362192858547825  0.
2.489303011651382 -7.510511553836671  0.
1.489426220247602 -7.451387756875927  0.
0.4957828089457509 -7.4218258583636345  0.
-0.49578280894582916 -7.421825858363634  0.
-1.4894262202476871 -7.451387756875925  0.
-2.4893030116514723 -7.510511553836674  0.
2.637268027469853 -8.544823433943218  0.
1.5782052297486628 -8.487341964688325  0.
0.5253758121259616 -8.458601230058653  0.
-0.5253758121260382 -8.458601230058651  0.
-1.578205229748754 -8.487341964688321  0.
-2.63726802746996 -8.544823433943222  0.
2.7810650146786977 -9.637487714676881  0.
1.6644834220709264 -9.581648573116881  0.
0.5541352095677097 -9.553729002337608  0.
-0.5541352095677841 -9.553729002337612  0.
-1.6644834220710234 -9.58164857311689  0.
-2.781065014678832 -9.637487714676901  0.
2.9206939732710584 -10.786837184573997  0.
1.7482607972248503 -10.732640370706998  0.
0.5820610012854033 -10.705541963773861  0.
-0.5820610012854887 -10.705541963773886  0.
-1.7482607972249524 -10.732640370707054  0.
-2.9206939732712294 -10.78683718457407  0.
3.056154903247911 -11.991204632185  0.
1.8295373552105973 -11.938650146010872  0.
0.6091531872804777 -11.912372902923945  0.
-0.609153187280633 -11.912372902924032  0.
-1.8295373552107028 -11.938650146011069  0.
-3.0561549032480997 -11.991204632185214  0.
3.1874478046099517 -13.248922846063582  0.
1.908313096027736 -13.19801068758236  0.
0.635411767552704 -13.172554608341901  0.
-0.6354117675530964 -13.172554608342123  0.
-1.9083130960278418 -13.19801068758286  0.
-3.187447804610037 -13.248922846064078  0.
3.314572677357492 -14.55832461476391  0.
1.9845880196761108 -14.509054783975577  0.
0.6608367421018533 -14.484419868581714  0.
-0.6608367421028521 -14.484419868582163  0.
-1.9845880196762136 -14.509054783976582  0.
-3.3145726773570794 -14.55832461476481  0.
3.4375295214908435 -15.917742726840325  0.
2.0583621261556866 -15.870115223744786  0.
0.6854281109277651 -15.846301472197524  0.
-0.6854281109299905 -15.846301472198187  0.
-2.058362126155789 -15.870115223746264  0.
-3.4375295214889725 -15.917742726841404  0.
3.5563183370104414 -17.325509970847634  0.
2.1296354154664505 -17.27952479544471  0.
0.7091858740304469 -17.256532207743714  0.
-0.7091858740344925 -17.25653220774407  0.
-2.1296354154665744 -17.279524795445468  0.
-3.556318337005287 -17.32550997084733  0.
3.670939123916564 -18.779959135341734  0.
2.198407887608372 -18.73561628763119  0.
0.7321100314106065 -18.713444863775173  0.
-0.7321100314156489 -18.713444863773166  0.
-2.1984078876086 -18.735616287626602  0.
-3.6709391239057423 -18.77995913533496  0.
3.781391882208102 -20.27942300888045  0.
2.264679542581384 -20.236722488862277  0.
0.7542005830710279 -20.215372228847787  0.
-0.7542005830706758 -20.21537222883788  0.
-2.2646795425819337 -20.23672248883989  0.
-3.781391882191447 -20.279423008854735  0.
3.887676611879136 -21.822234380023627  0.
2.328450380385373 -21.781176187699025  0.
0.7754575290192618 -21.76064709151878  0.
-0.7754575289920237 -21.760647091489243  0.
-2.3284503803866894 -21.781176187632568  0.
-3.88767661186832 -21.82223437995509  0.
3.9897933129115524 -23.4067260373293  0.
2.389720401020227 -23.367310172703103  0.
0.7958808692713236 -23.3476022403457  0.
-0.7958808691636765 -23.347602240277972  0.
-2.3897204010229807 -23.367310172551186  0.
-3.989793312954478 -23.406726037186232  0.
4.087741985262995 -25.03123076933783  0.
2.4484896044860816 -24.993457232423367  0.
0.8154706038526685 -24.97457046388046  0.
-0.8154706035601795 -24.97457046376043  0.
-2.4484896044906703 -24.9934572321552  0.
-4.087741985492275 -25.031230769116092  0.
4.181522628856559 -26.69408136452754  0.
2.5047579907840714 -26.657950155353443  0.
0.834226732782968 -26.639884550650514  0.
-0.8342267321618612 -26.63988455051742  0.
-2.504757990788624 -26.65795015505922  0.
-4.181522629558618 -26.69408136437459  0.
4.271135243601578 -28.39361061121845  0.
2.5585255599180603 -28.35912172983116  0.
0.8521492560097211 -28.341877289114027  0.
-0.8521492550212223 -28.34187728919904  0.
-2.5585255599129795 -28.359121730033696  0.
-4.271135245244173 -28.393610611749985  0.
4.356579829530812 -30.12815129741366  0.
2.6097923118977424 -30.095304743852036  0.
0.8692381732195228 -30.078881467576487  0.
-0.8692381724516691 -30.078881468608078  0.
-2.609792311854041 -30.095304746191378  0.
-4.35657983251618 -30.12815130034745  0.
4.437856387245625 -31.896036210658647  0.
2.6585582467421953 -31.864831984838954  0.
0.8854934834211837 -31.849229874086813  0.
-0.8854934854443934 -31.849229877803886  0.
-2.6585582465927335 -31.864831993217656  0.
-4.437856390773277 -31.89603621972978  0.
4.514964918999836 -33.69559813829542  0.
2.704823364478104 -33.66603623967898  0.
0.9009151842427838 -33.651255296450366  0.
-0.9009151963713335 -33.65125530608932  0.
-2.7048233641023893 -33.66603626133372  0.
-4.514964917761634 -33.69559815966322  0.
4.587905430762841 -35.525169869215006  0.
2.748587665114278 -35.49725029606453  0.
0.9155032712569892 -35.48329052281926  0.
-0.9155033096599187 -35.48329054242044  0.
-2.7485876643742957 -35.497250339955464  0.
-4.587905407511753 -35.52516990836511  0.
4.65667793492294 -37.38308419960376  0.
2.7898511485480917 -37.35680694770687  0.
0.9292577389011039 -37.34366834400369  0.
-0.9292578308730668 -37.34366837309513  0.
-2.7898511475114365 -37.356807012479806  0.
-4.65667784763487 -37.38308424675723  0.
4.721282450501087 -39.26767394702789  0.
2.8286138143201685 -39.243039008403436  0.
0.9421785876770559 -39.230721559730995  0.
-0.9421787595085185 -39.2307215754951  0.
-2.8286138139736634 -39.24303904221654  0.
-4.721282219108875 -39.2676739343797  0.
4.7817189900201855 -41.177271977444576  0.
2.8648756611083264 -41.154279341736085  0.
0.9542658484018005 -41.14278299190641  0.
-0.9542660647420582 -41.142782904833695  0.
-2.8648756650790066 -41.15427914268641  0.
-4.781718509412261 -41.177271682372385  0.
4.837987505488431 -43.11021124113434  0.
2.89863668595245 -43.08886090793428  0.
0.9655196426552412 -43.0781855056484  0.
-0.9655196249481859 -43.07818507315781  0.
-2.898636703747066 -43.08885993074912  0.
-4.837986766571878 -43.11021011752133  0.
4.890087738737504 -45.06482477773964  0.
2.9298968837328734 -45.0451167989727  0.
0.9759403008399941 -45.03526202543789  0.
-0.9759391095466285 -45.03526073329181  0.
-2.9298969348918686 -45.04511389151861  0.
-4.890087248982222 -45.0648217772334  0.
4.938018897843967 -47.03944555054744  0.
2.958656249152416 -47.02138013765945  0.
0.9855285251191288 -47.01234549096948  0.
-0.9855238160646881 -47.012342522854155  0.
-2.9586563631773686 -47.021373479575004  0.
-4.938020749456304 -47.03943927577137  0.
4.981779127921746 -49.0324057543955  0.
2.9849147879277353 -49.015983488849365  0.
0.9942854356451298 -49.00776859560412  0.
-0.9942726258479186 -49.007763322901496  0.
-2.9849149827095216 -49.015971709535194  0.
-4.981789124562267 -49.03239600004345  0.
5.0213650472302165 -51.04203488061971  0.
3.008672555747786 -51.02725701394446  0.
1.002211916515918 -51.01986295241014  0.
-1.002184672716124 -51.0198570731947  0.
-3.0086727499046573 -51.02724400901841  0.
-5.021395748860056 -51.0420280590384  0.
5.056772615095847 -53.066655525963974  0.
3.029929766679956 -53.05352405613263  0.
1.0093057483989278 -53.04695710608431  0.
-1.0092622716101742 -53.04696068901024  0.
-3.029929544070982 -53.05353264303089  0.
-5.056844577183937 -53.06667851068341  0.
5.088002918404227 -55.104576293023904  0.
3.0486870555792054 -55.09309298514559  0.
1.0155534260299732 -55.08737274163996  0.
-1.0155192585646855 -55.08741771531674  0.
-3.0486851420414394 -55.09319482535402  0.
-5.0881340327974005 -55.104704340708295  0.
5.1150814632284245 -57.154085326000526  0.
3.0649457438200693 -57.144246341559075  0.
1.0209117346952505 -57.139420765663886  0.
-1.0209990644612121 -57.13958291042411  0.
-3.0649392895445615 -57.14461271690746  0.
-5.115237010263017 -57.154481798228396  0.
5.138105138059579 -59.21345479776106  0.
3.0787062853889022 -59.20524220651867  0.
1.0252744869088746 -59.2014036156263  0.
-1.0258032847457512 -59.20182677564925  0.
-3.0786900199663108 -59.20618908758623  0.
-5.138054539147951 -59.21439257551488  0.
5.157351906633391 -61.28101748831437  0.
3.089951937664539 -61.27435572290146  0.
1.0284256667236693 -61.271671284968136  0.
-1.0301025125332852 -61.272522005580036  0.
-3.0899237166195976 -61.276285733336735  0.
-5.156334329752945 -61.28272967574361  0.
5.173445763551706 -63.355312179922464  0.
3.098567757701612 -63.350164480897725  0.
1.0300312805142833 -63.3487401400552  0.
-1.0340449181998845 -63.35003958266539  0.
-3.098543305476536 -63.352974073980924  0.
-5.169636795947973 -63.35743671839577  0.
5.187910230216604 -65.43636648531185  0.
3.1040818425119103 -65.4319172821461  0.
1.0297892084606919 -65.43196754212113  0.
-1.037179077711226 -65.4323510736952  0.
-3.1043072563626932 -65.43350553254854  0.
-5.1775634371527905 -65.4356923340519  0.
5.2021366348127 -67.52506286229726  0.
3.1049368075052923 -67.52408089755832  0.
1.029883959536987 -67.51994803890165  0.
-1.038167165384201 -67.51575861178085  0.
-3.1069473178290714 -67.51382768440823  0.
-5.180565398015962 -67.51382405298845  0.
5.219910837106586 -69.66498024554765  0.
3.111665547641806 -69.62515225799076  0.
1.034263135600474 -69.603363142602  0.
-1.036337494552006 -69.59296178254965  0.
-3.107113870493526 -69.58953231808167  0.
-5.180975473501183 -69.58910647602438  0.
</DataArray>
<DataArray type="Float64" Name="Nodal_sigma_xx" NumberOfComponents="1" format="ascii" >
0.09428638173673594 
0.06907143803860265 
0.021928247170233853 
-0.021928247170237166 
-0.06907143803860619 
-0.09428638173673969 
0.0920572013397769 
0.06889357314444935 
0.022864972474560045 
-0.022864972474563483 
-0.06889357314445285 
-0.09205720133978046 
0.08923459656329617 
0.06779068868502534 
0.023173390403376362 
-0.02317339040337995 
-0.06779068868502881 
-0.08923459656329952 
0.08779026213390159 
0.06608103946577944 
0.022185908398827746 
-0.022185908398831333 
-0.0660810394657829 
-0.08779026213390494 
0.08603068169275283 
0.06457412328602224 
0.02155878243964494 
-0.02155878243964849 
-0.06457412328602571 
-0.08603068169275623 
0.0841898764001443 
0.0631474173067016 
0.021052479106628604 
-0.021052479106632084 
-0.0631474173067051 
-0.08418987640014776 
0.08232242386241573 
0.06174134125882246 
0.020580129327613748 
-0.02058012932761722 
-0.06174134125882594 
-0.08232242386241914 
0.08045148975158906 
0.06033819700039363 
0.020112452124598265 
-0.02011245212460174 
-0.060338197000397095 
-0.08045148975159239 
0.07858034514790788 
0.058935142273057996 
0.019644969699103225 
-0.019644969699106663 
-0.058935142273061444 
-0.07858034514791121 
0.07670932671623744 
0.05753197453110941 
0.01917731117298989 
-0.019177311172993254 
-0.05753197453111293 
-0.07670932671624098 
0.07483835566468618 
0.05612876529620124 
0.018709587463857386 
-0.018709587463860727 
-0.05612876529620484 
-0.07483835566468978 
0.07296739552798026 
0.054725547099061855 
0.018241849335070913 
-0.018241849335074292 
-0.054725547099065186 
-0.07296739552798341 
0.07109643678616603 
0.05332232781285235 
0.0177741094197685 
-0.017774109419771797 
-0.05332232781285547 
-0.07109643678616899 
0.06922547802314319 
0.051919108571888306 
0.01730636956031614 
-0.017306369560318793 
-0.051919108571891776 
-0.0692254780231471 
0.06735451918580834 
0.05051588939750599 
0.016838629804601674 
-0.01683862980460328 
-0.05051588939750999 
-0.0673545191858137 
0.06548356032448407 
0.04911267024358591 
0.01637089008134423 
-0.01637089008134432 
-0.049112670243590464 
-0.06548356032449158 
0.06361260145843325 
0.04770945109352226 
0.015903150364306232 
-0.01590315036430492 
-0.04770945109352713 
-0.06361260145844322 
0.06174164259190355 
0.046306231943814696 
0.015435410647861875 
-0.015435410647863971 
-0.04630623194381785 
-0.06174164259190985 
0.05987068372544073 
0.044903012794051435 
0.014967670931321871 
-0.014967670931344898 
-0.04490301279404639 
-0.059870683725421384 
0.05799972485904874 
0.043499793644259474 
0.014499931214701748 
-0.014499931214790783 
-0.04349979364423022 
-0.057999724858945605 
0.0561287659927281 
0.04209657449447344 
0.014032191498021058 
-0.014032191498266462 
-0.04209657449438879 
-0.05612876599242132 
0.05425780712650205 
0.040693355344706805 
0.01356445178127079 
-0.013564451781806562 
-0.04069335534452499 
-0.05425780712580683 
0.052386848260337335 
0.03929013619494401 
0.013096712064485542 
-0.013096712065381502 
-0.03929013619465757 
-0.052386848259131744 
0.050515889393939986 
0.0378869170450894 
0.0126289723479078 
-0.012628972348749393 
-0.037886917044881896 
-0.05051588939268822 
0.048644930526293775 
0.03648369789484482 
0.012161232632344575 
-0.012161232631102623 
-0.036483697895495784 
-0.048644930527493024 
0.04677397165481421 
0.03508047874350313 
0.01169349291979621 
-0.011693492910441028 
-0.0350804787472076 
-0.04677397166613277 
0.044903012774346954 
0.03367725958975705 
0.011225753214146294 
-0.011225753182880962 
-0.03367725960132389 
-0.04490301281376041 
0.04303205387751133 
0.032274040432004034 
0.010758013520687223 
-0.010758013443130059 
-0.03227404045944686 
-0.04303205397775589 
0.04116109496124262 
0.030870821270551786 
0.010290273840644614 
-0.010290273689962867 
-0.030870821321269858 
-0.0411610951611857 
0.03929013605139016 
0.029467602114931952 
0.009822534151561771 
-0.009822533945835914 
-0.029467602177260483 
-0.03929013633819933 
0.03741917726799697 
0.028064383001967272 
0.009354794356593124 
-0.009354794307594415 
-0.028064382990594945 
-0.03741917738875239 
0.03554821896100431 
0.026661164030706716 
0.008887054181722321 
-0.008887055049256434 
-0.026661163662226782 
-0.035548217962905186 
0.03367726191917893 
0.025257945409674427 
0.00841931302404579 
-0.00841931677373359 
-0.02525794398363715 
-0.03367725727188545 
0.03180630750958061 
0.02385472746644917 
0.007951569872473046 
-0.007951580492147779 
-0.023854723627265477 
-0.031806293948607026 
0.029935357158033207 
0.02245151044163908 
0.007483823773527178 
-0.0074838471580388885 
-0.022451502352546247 
-0.02993532656720531 
0.02806440953355823 
0.021048293608990527 
0.00701607611882188 
-0.0070161153795716465 
-0.02104828088560467 
-0.028064356458845106 
0.026193451892265737 
0.01964507279558761 
0.006548337451383755 
-0.006548374610747448 
-0.019645063397519997 
-0.02619339636968707 
0.02432243976949494 
0.018241834943497397 
0.006080643050863024 
-0.006080589555041269 
-0.018241862935613723 
-0.024322490776918712 
0.022451259958799465 
0.016838549027908378 
0.005613080507263135 
-0.005612672562924798 
-0.016838710486666814 
-0.02245175292997506 
0.020579686376219222 
0.015435157661406478 
0.005145820201042985 
-0.005144453184234853 
-0.01543566338915542 
-0.020581408954348894 
0.018707393849891195 
0.01403159033478499 
0.00467909568158075 
-0.004675698621917501 
-0.014032792606527941 
-0.018711783425738163 
0.016834240239496027 
0.012627861551845164 
0.004212967904874128 
-0.00420635500573142 
-0.012630088024622812 
-0.01684301309222883 
0.014961336488908033 
0.011224395932202183 
0.003746478787820154 
-0.0037374150960832585 
-0.011227147032275127 
-0.01497396167223976 
0.013093874342932797 
0.009822841255297827 
0.0032754524544981165 
-0.003273161034266076 
-0.00982238962596596 
-0.013099360442066393 
0.01124723427144862 
0.0084275063605133 
0.0027878997442232025 
-0.0028255710015273883 
-0.008411516879949451 
-0.011203870717975701 
0.009456487529081022 
0.007047006173659503 
0.0022563668207044476 
-0.0024200200039027776 
-0.006984610585247366 
-0.009253972339518267 
0.007789624217317065 
0.005689612757794468 
0.0016282664516215869 
-0.002092063597305481 
-0.005523078560280935 
-0.007195098320979607 
0.006323809172160105 
0.004346566451576251 
0.0008304504599620075 
-0.0018494713081674157 
-0.00399235504604246 
-0.004994190286818471 
0.005122424807033751 
0.0028884810432861247 
-0.00016493264255822157 
-0.0015010849269163546 
-0.0023962797609592855 
-0.0027747922327408013 
0.003113091383002476 
0.0013045975243110226 
-0.0005987959940961479 
-0.0008087196023576691 
-0.0009577496974064414 
-0.000991755843909409 
0.0016307425755994066 
0.0005079996654549903 
-0.0004884398297287154 
-0.0003620279970285641 
-0.00032693145807345637 
-0.0002919433368577896 
</DataArray>
<DataArray type="Float64" Name="Nodal_sigma_yy" NumberOfComponents="1" format="ascii" >
0.022843164408970437 
0.01761127756091317 
0.006189695356427665 
-0.006189695356428794 
-0.017611277560914233 
-0.02284316440897146 
0.010793130361894453 
0.009093495687551384 
0.0036969305066039517 
-0.0036969305066047453 
-0.00909349568755203 
-0.01079313036189498 
-0.0006323979206884368 
0.00011846426859210687 
0.00043466322893624795 
-0.0004346632289365266 
-0.00011846426859224218 
0.0006323979206884142 
-7.942840927878739e-05 
-0.00026225015333191694 
-0.0002225359486925394 
0.00022253594869248194 
0.0002622501533319048 
7.942840927881341e-05 
-8.631582303104957e-05 
-0.00011367105051839728 
-7.051313900285276e-05 
7.051313900286577e-05 
0.00011367105051839511 
8.631582303109814e-05 
-1.30352195747193e-05 
-2.3985372097951648e-05 
-1.7467762310544943e-05 
1.7467762310609996e-05 
2.3985372097946878e-05 
1.3035219574767873e-05 
-2.1562201666693037e-06 
-3.2227753324841867e-06 
-2.1446652491177677e-06 
2.1446652491032394e-06 
3.222775332470309e-06 
2.1562201667976733e-06 
1.233983950230111e-07 
7.122511428130779e-08 
9.525916806719329e-09 
-9.525916877734571e-09 
-7.122511432033907e-08 
-1.2339839481137482e-07 
1.0792229163808509e-07 
1.6716352064594445e-07 
1.1320237488685828e-07 
-1.1320237493824947e-07 
-1.6716352073051222e-07 
-1.0792229146461274e-07 
3.58098008797908e-08 
5.4427177246033076e-08 
3.652227690713111e-08 
-3.6522276805324525e-08 
-5.442717741907174e-08 
-3.580980102550757e-08 
6.4534066961802194e-09 
1.0554669950969126e-08 
7.327966768003007e-09 
-7.3279665283943266e-09 
-1.0554670134416133e-08 
-6.453406881795631e-09 
6.193106704549534e-10 
1.066991254464883e-09 
7.57335927097872e-10 
-7.573360657673299e-10 
-1.0669911868106674e-09 
-6.193102263657435e-10 
-1.0396586369587624e-10 
-1.324896642049267e-10 
-8.050701365324223e-11 
8.050616873448921e-11 
1.3248984071304037e-10 
1.0396678136459503e-10 
-6.230910405691237e-11 
-9.441019927641792e-11 
-6.325592838158506e-11 
6.325490120844685e-11 
9.440998677279211e-11 
6.230960886144388e-11 
-1.6589606424699532e-11 
-2.595819718030634e-11 
-1.766364832178624e-11 
1.766226444613328e-11 
2.5957524107597663e-11 
1.6590010615269435e-11 
-2.6935866731525593e-12 
-4.410486082254139e-12 
-3.063515478622658e-12 
3.0634070584054096e-12 
4.4103535927486615e-12 
2.6942476027969064e-12 
-1.4634127243340345e-13 
-2.875275972175073e-13 
-2.118784206243951e-13 
2.1981380474503376e-13 
2.910453995863538e-13 
1.4742027043546102e-13 
7.914155442101389e-14 
1.151930113796329e-13 
8.501305128610914e-14 
-5.3587668157051294e-14 
-9.998794327226168e-14 
-7.401891599645438e-14 
4.092212679829288e-14 
7.166966672911279e-14 
7.626988233686016e-14 
8.69763245800459e-15 
-2.8760847869957473e-14 
-2.4794402642136504e-14 
2.637126628179942e-14 
5.855363936768665e-14 
9.77722677125703e-14 
8.151487297658466e-14 
3.4593205036625996e-14 
1.0965187091649398e-14 
3.3389090103863595e-14 
7.831907865296639e-14 
1.4326777611484154e-13 
1.4102911546909347e-13 
7.49450414921915e-14 
3.1118337073809954e-14 
3.379848484419412e-14 
6.683499240156543e-14 
1.0820635837002768e-13 
1.0857368606606577e-13 
6.681764516680566e-14 
3.302913498259841e-14 
-3.2395093552128884e-14 
-1.2814402317040674e-13 
-2.991644475550115e-13 
-2.9861432337269234e-13 
-1.282149299924873e-13 
-3.363715556092828e-14 
-3.0635737002793206e-13 
-8.606043395281704e-13 
-1.763267971303245e-12 
-1.7635106157494473e-12 
-8.60820529441364e-13 
-3.0630446096191477e-13 
-1.0623706775403363e-12 
-2.8039124841394703e-12 
-5.556629646425587e-12 
-5.557217500843509e-12 
-2.803819025912202e-12 
-1.0610080522499565e-12 
-2.6925449717052352e-12 
-6.844092783828137e-12 
-1.3264299977399502e-11 
-1.3264876772955264e-11 
-6.84409581959422e-12 
-2.6913974521258766e-12 
-5.355154687747277e-12 
-1.3067117266701844e-11 
-2.4685834214450975e-11 
-2.4686389109122853e-11 
-1.3067132228691825e-11 
-5.354074822383481e-12 
-7.646289851281907e-12 
-1.7230347574073712e-11 
-3.081545251176071e-11 
-3.0816114742447664e-11 
-1.7230246526431237e-11 
-7.644763294623047e-12 
-3.091439430835674e-12 
-1.7904382403760577e-12 
3.6075045132134137e-12 
3.6066490776993226e-12 
-1.7911176014573371e-12 
-3.0910872819700508e-12 
2.7120893204835017e-11 
8.198120329296066e-11 
1.7406220020020624e-10 
1.7406127429155094e-10 
8.197985454545809e-11 
2.712004752714048e-11 
1.2528948451634436e-10 
3.396376073178803e-10 
6.827684869846647e-10 
6.827687844897408e-10 
3.396384477914044e-10 
1.2529057045324032e-10 
3.6449726917298086e-10 
9.442922448751195e-10 
1.8503796274350285e-09 
1.8503840915290535e-09 
9.442995200885373e-10 
3.645028914117665e-10 
8.202735331253042e-10 
2.047133180744891e-09 
3.922229943717666e-09 
3.922252128445679e-09 
2.0471662252755443e-09 
8.202952527305851e-10 
1.4186623473189108e-09 
3.361279206251337e-09 
6.227055950958418e-09 
6.227122848184025e-09 
3.3613810247615575e-09 
1.4187321898881389e-09 
1.4707368838420831e-09 
2.9480833783294275e-09 
4.7898179359698746e-09 
4.7898218565533505e-09 
2.9481077907676442e-09 
1.4707778675515648e-09 
-1.416794810811528e-09 
-5.5193193269865645e-09 
-1.2933031716909609e-08 
-1.2934456078948515e-08 
-5.521342290705847e-09 
-1.4179920141722813e-09 
-1.3320244173289919e-08 
-3.749996042325381e-08 
-7.691133166738803e-08 
-7.692179892433205e-08 
-3.7515237755062283e-08 
-1.332986432301883e-08 
-4.634116251584636e-08 
-1.2253847641533616e-07 
-2.429845036674614e-07 
-2.430303241249157e-07 
-1.226063102203155e-07 
-4.638518921089643e-08 
-1.1778343933510627e-07 
-2.996979734333277e-07 
-5.810507638636124e-07 
-5.811593953956591e-07 
-2.998651698062852e-07 
-1.1790056901692797e-07 
-2.350023671068499e-07 
-5.73665104723598e-07 
-1.0838752353549652e-06 
-1.0836899706196632e-06 
-5.734251226463104e-07 
-2.3489293242287893e-07 
-3.379769068045761e-07 
-7.620780000718594e-07 
-1.361094185199898e-06 
-1.3573761790215748e-06 
-7.567721959134176e-07 
-3.34801310844339e-07 
-1.521152321768901e-07 
-1.0802158151057865e-07 
1.21426146591899e-07 
1.4425302708947845e-07 
-7.432117455442649e-08 
-1.303681792597447e-07 
1.1405094260039366e-06 
3.4983897327082905e-06 
7.527761770184337e-06 
7.616320052028082e-06 
3.628749730119011e-06 
1.2241128571378879e-06 
5.350348372976403e-06 
1.4717585498648887e-05 
2.9752511040538265e-05 
2.989350039595848e-05 
1.4954224496336471e-05 
5.541647657511138e-06 
1.647135146201715e-05 
4.190512246623118e-05 
8.137303582860719e-05 
8.060040680167199e-05 
4.076175008393772e-05 
1.5729864751300648e-05 
3.895279331197674e-05 
9.635339759106955e-05 
0.00017654445113371285 
0.00016713858269522752 
8.34241615188774e-05 
3.190605804456303e-05 
9.357920812641616e-05 
0.00018510183592157397 
0.00029644362201615074 
0.0002494806431049424 
0.00011173051856107509 
4.076253122783501e-05 
0.00011191114032569173 
0.0002548887595432165 
0.0002933195680221302 
0.00011450590092086454 
2.1552568854147204e-05 
2.866093150084457e-06 
0.00041490684088306645 
-1.4075325857466393e-05 
-0.0006128537692683036 
-0.0006559069200754792 
-0.00032842395227791787 
-0.00012768411034348536 
-0.004953208637711053 
-0.004705159863713257 
-0.003689698156485621 
-0.002119059001190959 
-0.000779153940946668 
-0.00024247510276719886 
-0.01064611733534638 
-0.009110683132634353 
-0.005923545498362971 
-0.0029769851471401917 
-0.000973205455792556 
-0.00026428268410834453 
</DataArray>
<DataArray type="Float64" Name="Nodal_sigma_xy" NumberOfComponents="1" format="ascii" >
-0.007750772937449723 
-0.0034535769613504583 
0.0023289634300714184 
0.0023289634300712567 
-0.003453576961350944 
-0.00775077293745037 
-0.00393433054849382 
-0.0025789473130981124 
-0.00045388741265907026 
-0.0004538874126591864 
-0.002578947313098402 
-0.0039343305484941665 
-0.0003224210856382658 
-0.0016294643383390878 
-0.003209325118846121 
-0.00320932511884615 
-0.0016294643383391208 
-0.0003224210856382736 
-0.0007201715139675614 
-0.0016318703128423407 
-0.003008043930178303 
-0.0030080439301782835 
-0.001631870312842302 
-0.0007201715139675243 
-0.0009767550959322079 
-0.0017317872177882343 
-0.002779835234250062 
-0.00277983523425004 
-0.0017317872177882024 
-0.0009767550959321888 
-0.001051574719186737 
-0.0017597511195707105 
-0.002714461520840321 
-0.002714461520840293 
-0.001759751119570676 
-0.0010515747191867245 
-0.0010641083563077366 
-0.001765662716331079 
-0.002702283105519479 
-0.002702283105519453 
-0.0017656627163310356 
-0.0010641083563077028 
-0.0010650003145455764 
-0.0017662499100529047 
-0.00270124993267871 
-0.002701249932678697 
-0.00176624991005287 
-0.0010650003145455333 
-0.0010647007096889869 
-0.0017661946153806182 
-0.002701455029779213 
-0.002701455029779225 
-0.0017661946153806015 
-0.0010647007096889296 
-0.0010645597227075458 
-0.001766146096578813 
-0.002701574042071611 
-0.0027015740420716578 
-0.0017661460965788481 
-0.0010645597227075224 
-0.0010645254294494421 
-0.0017661325960308225 
-0.0027016046892487993 
-0.002701604689248812 
-0.001766132596030838 
-0.0010645254294494471 
-0.0010645203992869035 
-0.0017661302244437217 
-0.0027016095759174984 
-0.002701609575917357 
-0.0017661302244434897 
-0.0010645203992867209 
-0.001064520282276127 
-0.0017661300561474602 
-0.002701609802719205 
-0.0027016098027189545 
-0.0017661300561470274 
-0.0010645202822757616 
-0.001064520478046005 
-0.0017661301086295419 
-0.002701609652352315 
-0.002701609652351913 
-0.0017661301086288007 
-0.0010645204780453266 
-0.0010645205498882445 
-0.001766130134468094 
-0.0027016095905933787 
-0.002701609590592575 
-0.0017661301344665706 
-0.0010645205498868047 
-0.0010645205651895178 
-0.0017661301407822108 
-0.002701609576629136 
-0.0027016095766281088 
-0.0017661301407801292 
-0.0010645205651874101 
-0.0010645205670353367 
-0.0017661301417248988 
-0.0027016095747617757 
-0.002701609574762005 
-0.001766130141724424 
-0.0010645205670339278 
-0.0010645205669457883 
-0.0017661301417458406 
-0.0027016095747759246 