<?xml version="1.0"?>
<VTKFile type="UnstructuredGrid" version="0.1" byte_order="LittleEndian" compressor="vtkZLibDataCompressor">
<UnstructuredGrid>
<Piece NumberOfPoints="306" NumberOfCells="250">
<PointData>
<DataArray type="Float64" Name="displacement" NumberOfComponents="3" format="ascii" >
0.0 0.0  0.
0.0 0.0  0.
0.0 0.0  0.
0.0 0.0  0.
0.0 0.0  0.
0.0 0.0  0.
0.07788559561803506 -0.052006455815245566  0.
0.04050277223244048 -0.01836365719215629  0.
0.013332759804257271 -0.005215912709260211  0.
-0.013332759804262123 -0.005215912709261043  0.
-0.04050277223244547 -0.01836365719215901  0.
-0.07788559561804152 -0.052006455815251186  0.
0.15664882291095356 -0.10271908649502921  0.
0.09069539212290183 -0.07148901269301641  0.
0.029319930582644982 -0.05464145113302912  0.
-0.029319930582655664 -0.0546414511330305  0.
-0.09069539212291297 -0.07148901269302069  0.
-0.15664882291096568 -0.10271908649503629  0.
0.2348276890438606 -0.18467869236816462  0.
0.13890310583056203 -0.15365013709519582  0.
0.04587024698872118 -0.1378787797717194  0.
-0.045870246988738185 -0.13787877977172097  0.
-0.13890310583057935 -0.15365013709520048  0.
-0.23482768904387838 -0.18467869236817228  0.
0.3121814256592037 -0.2974755817166295  0.
0.18561003326710002 -0.26723660700507124  0.
0.061557507051799694 -0.2520384225391773  0.
-0.06155750705182304 -0.25203842253917885  0.
-0.18561003326712353 -0.26723660700507595  0.
-0.3121814256592274 -0.29747558171663724  0.
0.38801828649971526 -0.4410723375390977  0.
0.23115194668247108 -0.4115043391155996  0.
0.07677007332839701 -0.396712168596911  0.
-0.07677007332842664 -0.39671216859691255  0.
-0.23115194668250078 -0.41150433911560425  0.
-0.388018286499745 -0.44107233753910535  0.
0.4622114526239263 -0.6147082416295154  0.
0.2756674303602126 -0.5858030453922206  0.
0.09161230664862914 -0.5713503798369416  0.
-0.09161230664866499 -0.571350379836943  0.
-0.27566743036024843 -0.5858030453922252  0.
-0.4622114526239622 -0.6147082416295231  0.
0.5347367069561103 -0.8176964105355641  0.
0.31918059268643156 -0.789448455062387  0.
0.10611675236394032 -0.7753249655038121  0.
-0.10611675236398234 -0.7753249655038136  0.
-0.3191805926864736 -0.7894484550623915  0.
-0.5347367069561524 -0.8176964105355716  0.
0.6055936461600173 -1.0493617101809392  0.
0.361694095570088 -1.0217706609112214  0.
0.12028773364555115 -1.0079752863904  0.
-0.12028773364559928 -1.0079752863904012  0.
-0.3616940955701362 -1.021770660911226  0.
-0.6055936461600655 -1.0493617101809465  0.
0.6747829984392814 -1.3090361989505181  0.
0.403207575424809 -1.282102037552327  0.
0.13412549963743797 -1.2686349876642025  0.
-0.13412549963749223 -1.268634987664204  0.
-0.40320757542486324 -1.2821020375523318  0.
-0.6747829984393356 -1.3090361989505257  0.
0.7423050677144446 -1.5960529028768489  0.
0.44372080303947653 -1.5697756618688519  0.
0.14762989629859685 -1.5566370444614266  0.
-0.14762989629865722 -1.5566370444614281  0.
-0.44372080303953687 -1.5697756618688565  0.
-0.742305067714505 -1.5960529028768566  0.
0.808159918086514 -1.909744972349045  0.
0.4832337146589345 -1.884124660401274  0.
0.16080086550926168 -1.8713145040934416  0.
-0.16080086550932826 -1.871314504093443  0.
-0.48323371465900106 -1.8841246604012787  0.
-0.8081599180865804 -1.9097449723490525  0.
0.872347557905893 -2.249445536573943  0.
0.5217462996742305 -2.224482155572288  0.
0.17363839396843295 -2.2120004648062386  0.
-0.17363839396850547 -2.21200046480624  0.
-0.5217462996743032 -2.224482155572292  0.
-0.8723475579059654 -2.2494455365739503  0.
0.9348679869178325 -2.614487714343232  0.
0.5592585573981805 -2.590181264460388  0.
0.18614247998150257 -2.5780280394454183  0.
-0.18614247998158043 -2.578028039445419  0.
-0.5592585573982594 -2.590181264460391  0.
-0.9348679869179114 -2.6144877143432383  0.
0.9957212046609648 -3.0042046215361653  0.
0.5957704880992757 -2.980555102751862  0.
0.19831312357836123 -2.9687303433469427  0.
-0.1983131235784435 -2.968730343346943  0.
-0.5957704880993608 -2.980555102751864  0.
-0.9957212046610519 -3.0042046215361706  0.
1.0549072109883668 -3.417929373578967  0.
0.6312820918997074 -3.394936785877004  0.
0.21015032485044682 -3.3834404920251338  0.
-0.21015032485053217 -3.383440492025134  0.
-0.6312820918997986 -3.3949367858770056  0.
-1.054907210988464 -3.4179293735789726  0.
1.1124260058719162 -3.85499508587262  0.
0.665793368828619 -3.8326594292486162  0.
0.22165408382714683 -3.8214916009369055  0.
-0.22165408382723492 -3.8214916009369078  0.
-0.6657933688287161 -3.8326594292486225  0.
-1.1124260058720281 -3.8549950858726323  0.
1.16827758930887 -4.31473487383166  0.
0.6993043188901935 -4.293056148284856  0.
0.23282440051422476 -4.282216785511601  0.
-0.23282440051432096 -4.282216785511611  0.
-0.6993043188902961 -4.293056148284882  0.
-1.168277589309 -4.314734873831694  0.
1.2224619612996188 -4.796481852876258  0.
0.7318149420844964 -4.775460058406605  0.
0.24366127491225464 -4.764949161171832  0.
-0.2436612749123824 -4.764949161171868  0.
-0.731814942084604 -4.7754600584066855  0.
-1.2224619612997591 -4.796481852876348  0.
1.2749791218444406 -5.299569138427891  0.
0.7633252384113546 -5.279204275035401  0.
0.25416470702114496 -5.269021843339217  0.
-0.2541647070213711 -5.269021843339306  0.
-0.7633252384114657 -5.279204275035603  0.
-1.2749791218445434 -5.299569138428093  0.
1.3258290709434606 -5.8233298459082246  0.
0.793835207870706 -5.80362191359289  0.
0.2643346968408041 -5.793767947435345  0.
-0.2643346968412763 -5.7937679474355255  0.
-0.7938352078708197 -5.803621913593295  0.
-1.325829070943367 -5.823329845908589  0.
1.3750118085968035 -6.367097090738995  0.
0.8233448504625371 -6.34804608950078  0.
0.27417124437116785 -6.338520588881875  0.
-0.2741712443721341 -6.33852058888214  0.
-0.8233448504626539 -6.348046089501372  0.
-1.37501180859613 -6.3670970907394295  0.
1.4225273348046426 -6.930203988342124  0.
0.8518541661868423 -6.911809918180955  0.
0.2836743496122395 -6.9026128831005575  0.
-0.28367434961393695 -6.902612883100699  0.
-0.8518541661869713 -6.91180991818126  0.
-1.42252733480266 -6.930203988342007  0.
1.4683756495670903 -7.51198365413997  0.
0.8793631550436096 -7.494246515055752  0.
0.2928440125643019 -7.485377945513347  0.
-0.2928440125664011 -7.485377945512545  0.
-0.8793631550437835 -7.49424651505392  0.
-1.4683756495628442 -7.511983654137264  0.
1.5125567528837032 -8.11176920355566  0.
0.9058718170328124 -8.094688995548394  0.
0.3016802332284687 -8.086148891542598  0.
-0.30168023322841325 -8.086148891538636  0.
-0.905871817033118 -8.094688995539443  0.
-1.5125567528771267 -8.111769203545379  0.
1.555070644752113 -8.728893752013137  0.
0.9313801521544054 -8.712470475083297  0.
0.3101830116077603 -8.704258836611201  0.
-0.3101830115969538 -8.704258836599388  0.
-0.9313801521550205 -8.712470475056717  0.
-1.5550706447478757 -8.728893751985726  0.
1.5959173251650742 -9.36269041493561  0.
0.9558881604083436 -9.346924069085134  0.
0.318352347708583 -9.339040896142173  0.
-0.31835234766561576 -9.339040896115083  0.
-0.9558881604095364 -9.346924069024368  0.
-1.5959173251823366 -9.362690414878386  0.
1.6350967941056451 -10.012492307739222  0.
0.9793958417946814 -9.99738289297344  0.
0.3261882415411187 -9.989828185556279  0.
-0.32618824142421765 -9.989828185508268  0.
-0.9793958417966113 -9.997382892866176  0.
-1.6350967941974517 -10.01249230765053  0.
1.6726090515430636 -10.677632545815305  0.
1.0019031963138727 -10.66318006214567  0.
0.33369069311323596 -10.6559538202645  0.
-0.33369069286489084 -10.655953820211263  0.
-1.001903196315791 -10.663180062027982  0.
-1.6726090518239847 -10.677632545754129  0.
1.7084540974410634 -11.357444244491866  0.
1.0234102239674625 -11.343648691936952  0.
0.3408597024039346 -11.336750915650102  0.
-0.34085970200863536 -11.336750915684107  0.
-1.0234102239655305 -11.34364869201797  0.
-1.708454098098201 -11.357444244704483  0.
1.7426319318127483 -12.05126051897014  0.
1.0439169247593298 -12.038121897545496  0.
0.3476952692878525 -12.031552587035279  0.
-0.34769526898081365 -12.031552587447916  0.
-1.043916924741952 -12.038121898481236  0.
-1.7426319330069973 -12.051260520143662  0.
1.7751425548986641 -12.758414484268325  0.
1.0634232986971048 -12.745932793940453  0.
0.3541973933685134 -12.739691949639598  0.
-0.3541973941779033 -12.739691951126428  0.
-1.0634232986374257 -12.745932797291935  0.
-1.775142556309829 -12.758414487896781  0.
1.805985967600338 -13.478239255323224  0.
1.081929345791462 -13.466414495876649  0.
0.3603660736971504 -13.460502118585206  0.
-0.36036607854867925 -13.460502122440786  0.
-1.081929345641284 -13.466414504538546  0.
-1.805985967105165 -13.478239263870343  0.
1.8351621723055294 -14.210067947691236  0.
1.0994350660459256 -14.19890011843105  0.
0.36620130850282984 -14.193316209132943  0.
-0.36620132386411247 -14.193316216973416  0.
-1.099435065750043 -14.198900135987424  0.
-1.8351621630052048 -14.21006796335128  0.
1.8626711739695592 -14.953233679846914  0.
1.1159404594194446 -14.942722779088164  0.
0.37170309556047293 -14.937467337606893  0.
-0.37170313234937136 -14.937467349243468  0.
-1.115940459004895 -14.94272280499734  0.
-1.862671139054445 -14.953233698708303  0.
1.8885129802008085 -15.70706957881674  0.
1.131445525728269 -15.697215603366965  0.
0.3768714350708511 -15.69228862389799  0.
-0.37687150380355117 -15.692288630203636  0.
-1.1314455255897815 -15.697215616892205  0.
-1.8885128876440382 -15.70706957375747  0.
1.9126875960084384 -16.470908790983586  0.
1.1459502644435253 -16.461711736700195  0.
0.3817063393607464 -16.457113196768326  0.
-0.38170642589696563 -16.45711316193924  0.
-1.1459502660319147 -16.46171165708033  0.
-1.912687403765385 -16.47090867295471  0.
1.9351950021957256 -17.24408449645966  0.
1.1594546743811684 -17.235544363179642  0.
0.38620785706212013 -17.23127420226529  0.
-0.3862078499794165 -17.231274029269056  0.
-1.1594546814991344 -17.235543972305578  0.
-1.9351947066292239 -17.24408404701446  0.
1.9560350954953467 -18.02592991110194  0.
1.1719587534933318 -18.01804671959517  0.
0.3903761203360182 -18.014104810181244  0.
-0.3903756438187924 -18.014104293322816  0.
-1.171958773957051 -18.018045556613533  0.
-1.9560348995933539 -18.025928710899446  0.
1.975207559137922 -18.815778220225223  0.
1.1834624996611436 -18.808552055070024  0.
0.3942114100476699 -18.80493819639404  0.
-0.39420952642601526 -18.80493700914791  0.
-1.1834625452712477 -18.80854939183625  0.
-1.9752082997829796 -18.815775710314796  0.
1.9927116511690253 -19.612962301764597  0.
1.193965915171267 -19.60639339554615  0.
0.39771417425806826 -19.603107438248053  0.
-0.39770905033930737 -19.603105329167  0.
-1.1939659930841053 -19.60638868382048  0.
-1.9927156498253578 -19.61295840002378  0.
2.008546018892407 -20.416813952254433  0.
1.2034690222992825 -20.410902805584335  0.
0.4008847666063817 -20.40794518097061  0.
-0.4008738690865892 -20.407942829284437  0.
-1.2034690999621565 -20.41089760361392  0.
-2.0085582995444686 -20.416811223621913  0.
2.022709046038654 -21.226662210392288  0.
1.2119719066721473 -21.221409622459756  0.
0.4037222993595843 -21.218782842440426  0.
-0.40370490864420944 -21.2187842756108  0.
-1.2119718176286847 -21.22141305721906  0.
-2.0227378308740183 -21.22667140428007  0.
2.035201167362001 -22.04183051721641  0.
1.2194748222318437 -22.037237194065085  0.
0.4062213704120015 -22.03494909666284  0.
-0.4062077034260134 -22.03496708613355  0.
-1.2194740568168663 -22.03727793014846  0.
-2.035253613119401 -22.04188173629017  0.
2.0460325852916776 -22.861634130407204  0.
1.2259782975281879 -22.85769853663063  0.
0.4083646938781106 -22.85576830627255  0.
-0.40839962578462435 -22.855833164176644  0.
-1.2259757158181146 -22.85784508676998  0.
-2.0460948041056457 -22.861792719298357  0.
2.055242055224138 -23.685381919111567  0.
1.2314825141557197 -23.68209688261461  0.
0.4101097947635603 -23.680561446257663  0.
-0.4103213138984402 -23.680730710266847  0.
-1.2314760079868141 -23.68247563504164  0.
-2.055221815659618 -23.685757030213097  0.
2.062940762653663 -24.51240699533304  0.
1.2359807750659737 -24.50974228916788  0.
0.41137026668947824 -24.508668513994547  0.
-0.4120410050134538 -24.509008802239308  0.
-1.2359694866481292 -24.510514293341984  0.
-2.0625337319016164 -24.513091870304738  0.
2.0693783054209884 -25.342124871976427  0.
1.2394271030808026 -25.34006579236653  0.
0.4120125122057229 -25.33949605602952  0.
-0.41361796728009326 -25.340015833073597  0.
-1.2394173221909055 -25.34118962959981  0.
-2.0678547183796274 -25.342974687365746  0.
2.075164092086947 -26.17454659413233  0.
1.2416327370049218 -26.172766912866027  0.
0.41191568338428525 -26.17278701685604  0.
-0.41487163108463077 -26.172940429485667  0.
-1.2417229025453675 -26.173402213027003  0.
-2.0710253748615557 -26.17427693362835  0.
2.0808546539253863 -27.010025144926644  0.
1.2419747230022742 -27.009632359031066  0.
0.4119535838148032 -27.007979215568398  0.
-0.4152668661538205 -27.006303444720082  0.
-1.2427789271319194 -27.00553107377103  0.
-2.072226159206825 -27.005529621203124  0.
2.0879643348429413 -27.865992098226947  0.
1.2446662190568785 -27.850060903204195  0.
0.4137052542401989 -27.84134525704869  0.
-0.4145349978209423 -27.837184713027746  0.
-1.2428455481977014 -27.83581292724056  0.
-2.0723901894009127 -27.835642590417645  0.
</DataArray>
<DataArray type="Float64" Name="Nodal_sigma_xx" NumberOfComponents="1" format="ascii" >
0.03771455269471425 
0.027628575215455253 
0.008771298868097304 
-0.008771298868100599 
-0.027628575215458757 
-0.03771455269471796 
0.03682288053592987 
0.02755742925779371 
0.009145988989827923 
-0.00914598898983134 
-0.02755742925779719 
-0.036822880535933404 
0.035693838625336385 
0.027116275474023475 
0.009269356161354391 
-0.009269356161357947 
-0.027116275474026917 
-0.03569383862533972 
0.03511610485357766 
0.026432415786324322 
0.0088743633595346 
-0.008874363359538149 
-0.02643241578632776 
-0.03511610485358101 
0.03441227267711718 
0.025829649314420684 
0.00862351297586121 
-0.008623512975864722 
-0.025829649314424136 
-0.0344122726771206 
0.033675950560072776 
0.025258966922691688 
0.008420991642654422 
-0.008420991642657905 
-0.025258966922695143 
-0.03367595056007623 
0.03292896954498034 
0.02469653650353927 
0.00823205173104822 
-0.008232051731051706 
-0.024696536503542713 
-0.03292896954498377 
0.03218059590064865 
0.024135278800166995 
0.008044980849841791 
-0.008044980849845266 
-0.024135278800170447 
-0.032180595900652115 
0.0314321380591752 
0.023574056909232012 
0.00785798787964354 
-0.00785798787964697 
-0.023574056909235468 
-0.031432138059178744 
0.030683730686506094 
0.02301278981245185 
0.0076709244691979496 
-0.007670924469201331 
-0.02301278981245529 
-0.030683730686509623 
0.029935342265884672 
0.022451506118487907 
0.007483834985544704 
-0.007483834985548154 
-0.02245150611849133 
-0.02993534226588809 
0.029186958211201257 
0.021890218839631378 
0.007296739734029874 
-0.007296739734033337 
-0.021890218839634767 
-0.02918695821120462 
0.028438574714474488 
0.021328931125146784 
0.007109643767908733 
-0.007109643767911988 
-0.021328931125150177 
-0.028438574714477992 
0.027690191209264393 
0.02076764342876042 
0.006922547824127492 
-0.006922547824130554 
-0.020767643428763985 
-0.027690191209268324 
0.026941807674329486 
0.020206355759006825 
0.006735451921841489 
-0.0067354519218441496 
-0.020206355759010544 
-0.026941807674333976 
0.026193424129798866 
0.019645068097438188 
0.006548356032538367 
-0.006548356032540368 
-0.019645068097442042 
-0.026193424129804126 
0.025445040583377744 
0.01908378043741206 
0.006361260145722875 
-0.006361260145724436 
-0.019083780437415994 
-0.02544504058338374 
0.024696657036765133 
0.018522492777528383 
0.006174164259144855 
-0.006174164259147841 
-0.018522492777531603 
-0.024696657036769452 
0.023948273490179094 
0.017961205117622343 
0.005987068372528628 
-0.005987068372539905 
-0.017961205117622343 
-0.023948273490173214 
0.023199889943621273 
0.017399917457704955 
0.005799972485880479 
-0.005799972485918042 
-0.017399917457695268 
-0.02319988994358213 
0.022451506397092383 
0.01683862979779005 
0.0056128765992079985 
-0.005612876599308169 
-0.01683862979775814 
-0.02245150639697166 
0.021703122850601178 
0.016277342137882733 
0.00542578071250756 
-0.0054257807127242085 
-0.01627734213781215 
-0.021703122850325062 
0.02095473930413434 
0.015716054477977102 
0.005238684825793378 
-0.005238684826153988 
-0.015716054477864477 
-0.020954739303654088 
0.020206355757574998 
0.015154766818034855 
0.005051588939162268 
-0.005051588939500622 
-0.015154766817953549 
-0.02020635575707603 
0.019457972210516185 
0.014593479157936616 
0.0048644930529369145 
-0.004864493052441538 
-0.014593479158198811 
-0.01945797221099776 
0.018709588661923564 
0.014032191497399444 
0.004677397167917575 
-0.004677397164176721 
-0.014032191498883073 
-0.018709588666452878 
0.01796120510973597 
0.013470903835900492 
0.004490301285657397 
-0.004490301273152716 
-0.013470903840529052 
-0.017961205125502894 
0.017212821551001685 
0.0129096161727991 
0.004303205408273417 
-0.004303205377252473 
-0.012909616183777848 
-0.01721282159110043 
0.016464437984493797 
0.012348328508217874 
0.004116109536256157 
-0.004116109475985485 
-0.012348328528506624 
-0.016464438064471915 
0.01571605442055218 
0.011787040845969599 
0.003929013660622956 
-0.003929013578334256 
-0.011787040870902234 
-0.015716054535277062 
0.014967670907194697 
0.011225753200783596 
0.0037419177426354384 
-0.003741917723037569 
-0.011225753196235925 
-0.014967670955498329 
0.014219287584396893 
0.010664465612278993 
0.003554821672687138 
-0.003554822019702529 
-0.010664465464888917 
-0.014219287185159593 
0.013470904767666266 
0.010103178163865818 
0.0033677252096165665 
-0.0033677267094934606 
-0.010103177593452882 
-0.013470902908751083 
0.012722523003827566 
0.009541890986576006 
0.0031806279489875284 
-0.0031806321968587846 
-0.009541889450904017 
-0.012722517579439856 
0.011974142863209337 
0.008980604176652293 
0.0029935295094091676 
-0.0029935388632151743 
-0.00898060094101631 
-0.011974130626879183 
0.011225763813419394 
0.008419317443592932 
0.0028064304475273155 
-0.002806446151828246 
-0.008419312354239532 
-0.011225742583534409 
0.010477380756901944 
0.007858029118231653 
0.00261933498055218 
-0.0026193498442984697 
-0.007858025359005677 
-0.010477358547871417 
0.009728975907793449 
0.007296733977395359 
0.0024322572203438007 
-0.002432235822016046 
-0.007296745174243236 
-0.009728996310764047 
0.008980503983514973 
0.006735419611160023 
0.002245232202904612 
-0.0022450690251692644 
-0.006735484194664509 
-0.008980701171986339 
0.008231874550483093 
0.0061740630645596775 
0.0020583280804163454 
-0.002057781273693655 
-0.006174265355659957 
-0.008232563581736175 
0.007482957539953207 
0.0056126361339114365 
0.0018716382726308638 
-0.001870279448766956 
-0.005613117042609389 
-0.007484713370292806 
0.006733696095796712 
0.005051144620736039 
0.0016851871619483177 
-0.001682542002292748 
-0.005052035209848326 
-0.006737205236889889 
0.005984534595561471 
0.0044897583728790895 
0.0014985915151270299 
-0.0014949660384335221 
-0.0044908588129095334 
-0.00598958466889467 
0.005237549737171439 
0.003929136502117984 
0.0013101809817987076 
-0.001309264413706749 
-0.003928955850385916 
-0.005239744176825448 
0.004498893708578899 
0.003371002544205149 
0.0011151598976894294 
-0.001130228400611224 
-0.003364606751979635 
-0.004481548287189359 
0.0037825950116321377 
0.0028188024694639153 
0.0009025467282824556 
-0.0009680080015608197 
-0.0027938442340989765 
-0.003701588935807095 
0.003115849686926321 
0.0022758451031174858 
0.0006513065806489842 
-0.0008368254389220934 
-0.002209231424112822 
-0.00287803932839214 
0.002529523668863171 
0.0017386265806300105 
0.00033218018398449567 
-0.0007397885232672447 
-0.0015969420184172769 
-0.0019976761147279232 
0.0020489699228121872 
0.0011553924173140495 
-6.597305702346756e-05 
-0.0006004339707668306 
-0.0009585119043836285 
-0.001109916893096443 
0.001245236553200231 
0.000521839009724268 
-0.00023951839763812843 
-0.0003234878409425068 
-0.0003830998789621109 
-0.0003967023375637702 
0.0006522970302399359 
0.00020319986618220142 
-0.00019537593189118148 
-0.00014481119881001837 
-0.00013077258322839903 
-0.00011677733474359128 
</DataArray>
<DataArray type="Float64" Name="Nodal_sigma_yy" NumberOfComponents="1" format="ascii" >
0.009137265763593052 
0.007044511024368918 
0.0024758781425721034 
-0.002475878142573229 
-0.007044511024369974 
-0.009137265763594067 
0.00431725214476008 
0.0036373982750224306 
0.001478772202642184 
-0.0014787722026429733 
-0.0036373982750230733 
-0.004317252144760613 
-0.0002529591682755199 
4.738570743685784e-05 
0.0001738652915745411 
-0.00017386529157481265 
-4.7385707436990764e-05 
0.0002529591682754904 
-3.1771363711532996e-05 
-0.00010490006133281708 
-8.90143794770646e-05 
8.90143794770266e-05 
0.00010490006133281144 
3.177136371154167e-05 
-3.452632921242815e-05 
-4.546842020735926e-05 
-2.8205255601142904e-05 
2.820525560116437e-05 
4.546842020737877e-05 
3.452632921243336e-05 
-5.214087829901251e-06 
-9.594148839170294e-06 
-6.987104924223951e-06 
6.9871049242407565e-06 
9.594148839187425e-06 
5.214087829884771e-06 
-8.624880666859361e-07 
-1.2891101329957346e-06 
-8.578660996738543e-07 
8.578660996436051e-07 
1.2891101330263091e-06 
8.624880667232326e-07 
4.935935794033591e-08 
2.849004571061492e-08 
3.8103667090051e-09 
-3.81036675389107e-09 
-2.8490045704760228e-08 
-4.935935796462204e-08 
4.3168916529987e-08 
6.686540824708039e-08 
4.5280949953843425e-08 
-4.528094994104984e-08 
-6.686540828708745e-08 
-4.316891674856216e-08 
1.4323920296405168e-08 
2.1770870880588947e-08 
1.4608910740192618e-08 
-1.4608910639253396e-08 
-2.1770870909753985e-08 
-1.4323920525388667e-08 
2.581362686104871e-09 
4.2218680354000684e-09 
2.9311866841348014e-09 
-2.9311866632639096e-09 
-4.2218679989708754e-09 
-2.5813626878395945e-09 
2.4772417190482843e-10 
4.2679651804898577e-10 
3.0293438132880483e-10 
-3.029344595539916e-10 
-4.2679645050319043e-10 
-2.4772408343393115e-10 
-4.158661999834057e-11 
-5.2995976856061444e-11 
-3.220270656579573e-11 
3.2202645254162873e-11 
5.299595679832125e-11 
4.1586543670507625e-11 
-2.4923885871830365e-11 
-3.776426057717358e-11 
-2.530241237342322e-11 
2.5302103213173735e-11 
3.776402920842997e-11 
2.4923662526182833e-11 
-6.636174682689289e-12 
-1.0383396833318903e-11 
-7.065445613557014e-12 
7.064976045596111e-12 
1.0383027554058955e-11 
6.635830773760176e-12 
-1.0778209921791237e-12 
-1.7641757195721586e-12 
-1.225222614337218e-12 
1.2253426355177122e-12 
1.7641144621494131e-12 
1.0776288715541593e-12 
-5.864796495669289e-14 
-1.149261892249842e-13 
-8.468098726573114e-14 
8.779064172674544e-14 
1.1639940313695751e-13 
5.905996178223738e-14 
3.170337256608313e-14 
4.60664492663021e-14 
3.3913816850292267e-14 
-2.1523500213019298e-14 
-3.992715446460293e-14 
-2.9409200769103805e-14 
1.6317242695906842e-14 
2.843797246299129e-14 
3.031082329574275e-14 
3.504683522559393e-15 
-1.1367751358293265e-14 
-9.681925400295555e-15 
1.0279971318638559e-14 
2.3348510624909835e-14 
3.914341181916747e-14 
3.25894096864926e-14 
1.3818373528762251e-14 
4.3277013916931395e-15 
1.3321375252894896e-14 
3.1408361154949826e-14 
5.732805723190904e-14 
5.626651488482848e-14 
2.981143977509593e-14 
1.2250617187348212e-14 
1.3619314009893912e-14 
2.6703248987014483e-14 
4.292917475494373e-14 
4.2824223984647136e-14 
2.643718577388654e-14 
1.329708912423122e-14 
-1.3139229287917331e-14 
-5.115049009352113e-14 
-1.198978253919708e-13 
-1.2013472356665889e-13 
-5.132623926568103e-14 
-1.3016931282860966e-14 
-1.224623701057137e-13 
-3.4407698044913726e-13 
-7.052226776724582e-13 
-7.054314950108789e-13 
-3.442923030005929e-13 
-1.2247538053178353e-13 
-4.245310700201621e-13 
-1.1214637074888345e-12 
-2.222379981322957e-12 
-2.2223933170096785e-12 
-1.1217225065474068e-12 
-4.2502199676386354e-13 
-1.0770160804862705e-12 
-2.73774362555268e-12 
-5.305270559343746e-12 
-5.305442839068954e-12 
-2.7378293859445235e-12 
-1.0768430418195418e-12 
-2.142376120256584e-12 
-5.2272333597030984e-12 
-9.874125022940779e-12 
-9.874381978855658e-12 
-5.2269276146904575e-12 
-2.141250718401544e-12 
-3.058073325817867e-12 
-6.892231577126928e-12 
-1.2326395031634144e-11 
-1.2326717148099589e-11 
-6.89209399187124e-12 
-3.0571539223755995e-12 
-1.2360355794438505e-12 
-7.161664924287825e-13 
1.4426067626712932e-12 
1.4422318997701564e-12 
-7.163947711961993e-13 
-1.2357424111764104e-12 
1.0848261525198133e-11 
3.2792271827640496e-11 
6.962440324796704e-11 
6.962456408935933e-11 
3.279240794922325e-11 
1.0848212085579068e-11 
5.0115795194316526e-11 
1.358549925117511e-10 
2.7310706287079177e-10 
2.731077104105393e-10 
1.3585563072735993e-10 
5.011577654603916e-11 
1.4579824652270756e-10 
3.7771662322405933e-10 
7.401517667667392e-10 
7.401535340704904e-10 
3.777194100031134e-10 
1.4580028547331314e-10 
3.2810811966682563e-10 
8.188525462077614e-10 
1.5688916516029983e-09 
1.5689002539340854e-09 
8.188661419403741e-10 
3.281181064698768e-10 
5.674647535723609e-10 
1.344511449982537e-09 
2.49082208356947e-09 
2.4908491134343616e-09 
1.3445524093516799e-09 
5.674926125808638e-10 
5.882958519203701e-10 
1.1792337010845498e-09 
1.9159268838326096e-09 
1.915928731096271e-09 
1.1792428741938706e-09 
5.883105036116887e-10 
-5.667166542901864e-10 
-2.2077271521342423e-09 
-5.1732125467201595e-09 
-5.1737827016460356e-09 
-2.2085372102095477e-09 
-5.67196460589045e-10 
-5.328096921346573e-09 
-1.499998367155515e-08 
-3.076453227143962e-08 
-3.07687194433162e-08 
-1.500609515494482e-08 
-5.331945544372746e-09 
-1.8536465243171665e-08 
-4.901539086887624e-08 
-9.719380118928514e-08 
-9.72121294725664e-08 
-4.904252424867486e-08 
-1.855407543620638e-08 
-4.7113377157903535e-08 
-1.1987918961778614e-07 
-2.3242030404245208e-07 
-2.324637577361119e-07 
-1.1994606800212705e-07 
-4.716022653926573e-08 
-9.400094830801752e-08 
-2.2946604190396207e-07 
-4.335500934386018e-07 
-4.33475988355719e-07 
-2.293700487167945e-07 
-9.395717209944796e-08 
-1.3519076253864365e-07 
-3.0483119999337167e-07 
-5.444376746874336e-07 
-5.429504720848562e-07 
-3.0270887835736563e-07 
-1.3392052447178636e-07 
-6.084609066787407e-08 
-4.3208632281534947e-08 
4.8570457979922816e-08 
5.770121017407569e-08 
-2.972847064973785e-08 
-5.214727179258562e-08 
4.562037718362343e-07 
1.399355893301257e-06 
3.0111047076153018e-06 
3.046528020155334e-06 
1.4514998914056103e-06 
4.896451429648764e-07 
2.140139349459248e-06 
5.887034200090642e-06 
1.1901004416597611e-05 
1.1957400157778066e-05 
5.981689798342018e-06 
2.2166590636010916e-06 
6.5885405855829965e-06 
1.6762048987728722e-05 
3.254921433271212e-05 
3.224016272041179e-05 
1.6304700033372956e-05 
6.291945901472124e-06 
1.558111732500618e-05 
3.854135903730628e-05 
7.061778045513908e-05 
6.685543307875775e-05 
3.336966460751118e-05 
1.276242321817864e-05 
3.7431683249819394e-05 
7.404073436840647e-05 
0.00011857744880750455 
9.979225724242454e-05 
4.469220742398528e-05 
1.6305012491137018e-05 
4.476445612890096e-05 
0.0001019555038168211 
0.00011732782720894987 
4.580236036825857e-05 
8.621027541365155e-06 
1.1464372593716606e-06 
0.00016596273635063609 
-5.630130343507674e-06 
-0.0002451415077071355 
-0.00026236276803045844 
-0.00013136958091072634 
-5.107364413715532e-05 
-0.001981283455085742 
-0.001882063945485347 
-0.0014758792625936368 
-0.0008476236004754098 
-0.0003116615763775657 
-9.699004110663359e-05 
-0.004258446934137668 
-0.003644273253052942 
-0.002369418199344839 
-0.0011907940588536394 
-0.00038928218231519237 
-0.0001057130736445687 
</DataArray>
<DataArray type="Float64" Name="Nodal_sigma_xy" NumberOfComponents="1" format="ascii" >
-0.0031003091749818874 
-0.0013814307845413801 
0.0009315853720284239 
0.0009315853720282634 
-0.0013814307845418632 
-0.0031003091749825322 
-0.0015737322193987199 
-0.0010315789252402963 
-0.0001815549650644362 
-0.00018155496506455188 
-0.001031578925240586 
-0.0015737322193990677 
-0.0001289684342557355 
-0.0006517857353365372 
-0.0012837300475399436 
-0.001283730047539975 
-0.0006517857353365706 
-0.0001289684342557394 
-0.00028806860558753004 
-0.0006527481251378477 
-0.0012032175720728027 
-0.0012032175720727877 
-0.0006527481251378096 
-0.00028806860558748364 
-0.00039070203837343576 
-0.0006927148871162238 
-0.0011119340937014645 
-0.0011119340937014465 
-0.0006927148871161829 
-0.0003907020383733902 
-0.0004206298876752667 
-0.0007039004478292196 
-0.0010857846083375518 
-0.0010857846083375357 
-0.000703900447829187 
-0.0004206298876752334 
-0.00042564334252366966 
-0.0007062650865333696 
-0.00108091324220921 
-0.001080913242209196 
-0.0007062650865333398 
-0.00042564334252363735 
-0.0004260001258187976 
-0.0007064999640220909 
-0.0010804999730728948 
-0.00108049997307289 
-0.0007064999640220778 
-0.0004260001258187806 
-0.0004258802838761572 
-0.0007064778461531712 
-0.001080582011913085 
-0.0010805820119130902 
-0.0007064778461531763 
-0.0004258802838761571 
-0.00042582388908356586 
-0.0007064584386324412 
-0.0010806296168300428 
-0.0010806296168300532 
-0.0007064584386324562 
-0.000425823889083575 
-0.00042581017178032357 
-0.0007064530384132382 
-0.0010806418757009152 
-0.001080641875700914 
-0.000706453038413244 
-0.000425810171780338 
-0.0004258081597153129 
-0.0007064520897783787 
-0.0010806438303683726 
-0.0010806438303683518 
-0.0007064520897783384 
-0.00042580815971527373 
-0.0004258081129109944 
-0.0007064520224598779 
-0.0010806439210890666 
-0.0010806439210889844 
-0.0007064520224597383 
-0.0004258081129108796 
-0.00042580819121894504 
-0.0007064520434527358 
-0.0010806438609423353 
-0.0010806438609421343 
-0.0007064520434524044 
-0.0004258081912186842 
-0.0004258082199558237 
-0.0007064520537881282 
-0.0010806438362387198 
-0.001080643836238365 
-0.0007064520537874994 
-0.0004258082199552759 
-0.0004258082260763247 