<?xml version="1.0"?>
<VTKFile type="UnstructuredGrid" version="0.1" byte_order="LittleEndian" compressor="vtkZLibDataCompressor">
<UnstructuredGrid>
<Piece NumberOfPoints="306" NumberOfCells="250">
<PointData>
<DataArray type="Float64" Name="displacement" NumberOfComponents="3" format="ascii" >
0.0 0.0  0.
0.0 0.0  0.
0.0 0.0  0.
0.0 0.0  0.
0.0 0.0  0.
0.0 0.0  0.
0.09735699452252643 -0.06500806976904444  0.
0.050628465290542116 -0.022954571490190118  0.
0.016665949755319227 -0.0065198908865726464  0.
-0.016665949755324087 -0.006519890886573481  0.
-0.05062846529054711 -0.022954571490192845  0.
-0.0973569945225329 -0.06500806976905006  0.
0.19581102863865754 -0.1283988581187613  0.
0.11336924015360839 -0.08936126586625186  0.
0.03664991322830108 -0.06830181391627106  0.
-0.03664991322831177 -0.06830181391627244  0.
-0.11336924015361954 -0.08936126586625612  0.
-0.1958110286386697 -0.12839885811876842  0.
0.2935346113047751 -0.2308483654601609  0.
0.17362888228817394 -0.19206267136895616  0.
0.05733780873589353 -0.17234847471461362  0.
-0.05733780873591054 -0.17234847471461517  0.
-0.1736288822881913 -0.19206267136896082  0.
-0.2935346113047929 -0.23084836546016851  0.
0.39022678207393846 -0.3718444771457158  0.
0.23201254158383738 -0.33404575875627374  0.
0.07694688381473917 -0.31504802817390903  0.
-0.07694688381476252 -0.31504802817391064  0.
-0.23201254158386095 -0.33404575875627845  0.
-0.39022678207396216 -0.37184447714572344  0.
0.4850228581245633 -0.5513404219237683  0.
0.2889399333530428 -0.5143804238944012  0.
0.09596259166048353 -0.49589021074604295  0.
-0.09596259166051314 -0.4958902107460445  0.
-0.28893993335307244 -0.5143804238944059  0.
-0.48502285812459306 -0.551340421923776  0.
0.5777643157798134 -0.7683853020367517  0.
0.34458428795021173 -0.7322538067401384  0.
0.11451538331077157 -0.7141879747960419  0.
-0.11451538331080739 -0.7141879747960435  0.
-0.3445842879502476 -0.732253806740143  0.
-0.5777643157798492 -0.7683853020367594  0.
0.6684208836950306 -1.0221205131692683  0.
0.39897574085797816 -0.9868105688278016  0.
0.1326459404549086 -0.9691562068795853  0.
-0.1326459404549506 -0.9691562068795868  0.
-0.3989757408580201 -0.9868105688278062  0.
-0.6684208836950727 -1.0221205131692759  0.
0.7569920576999025 -1.3117021377259375  0.
0.4521176194625419 -1.277213326138795  0.
0.1503596670569204 -1.25996910798777  0.
-0.1503596670569685 -1.2599691079877715  0.
-0.45211761946259 -1.2772133261387995  0.
-0.7569920576999507 -1.311702137725945  0.
0.8434787480489715 -1.636295248687857  0.
0.5040094692809368 -1.6026275469401223  0.
0.16765687454677736 -1.5857937345799684  0.
-0.16765687454683156 -1.58579373457997  0.
-0.5040094692809911 -1.6026275469401268  0.
-0.8434787480490258 -1.6362952486878646  0.
0.9278813346429156 -1.9950661285957116  0.
0.5546510037992655 -1.962219577335719  0.
0.18453737037322454 -1.9457963055764391  0.
-0.18453737037328485 -1.9457963055764407  0.
-0.5546510037993259 -1.9622195773357236  0.
-0.9278813346429758 -1.9950661285957192  0.
1.0101998976079931 -2.3871812154358936  0.
0.6040421433235827 -2.3551558255011833  0.
0.2010010818865544 -2.339143130116394  0.
-0.20100108188662089 -2.3391431301163954  0.
-0.6040421433236492 -2.3551558255011877  0.
-1.0101998976080595 -2.3871812154359007  0.
1.0904344473822087 -2.8118069207169496  0.
0.6521828745926981 -2.7806026944648834  0.
0.21704799246051748 -2.7650005810073233  0.
-0.21704799246058976 -2.765000581007324  0.
-0.6521828745927707 -2.7806026944648874  0.
-1.0904344473822811 -2.8118069207169563  0.
1.1685849836471254 -3.26810964292849  0.
0.6990731967476314 -3.2377265805749382  0.
0.23267809997685357 -3.2225350493062273  0.
-0.23267809997693106 -3.222535049306228  0.
-0.6990731967477102 -3.237726580574941  0.
-1.1685849836472046 -3.268109642928496  0.
1.2446515058260346 -3.7552557769195833  0.
0.7447131101239969 -3.725693878439207  0.
0.24789140447292626 -3.710912929183059  0.
-0.24789140447300773 -3.710912929183059  0.
-0.7447131101240817 -3.7256938784392086  0.
-1.2446515058261223 -3.7552557769195887  0.
1.318634013735281 -4.272411716973009  0.
0.7891026148745335 -4.2436709823455585  0.
0.2626879060630326 -4.229300615030721  0.
-0.26268790606311654 -4.229300615030721  0.
-0.7891026148746245 -4.243670982345559  0.
-1.3186340137353798 -4.272411716973015  0.
1.390532507339713 -4.818743857339998  0.
0.8322417110356705 -4.790824286559994  0.
0.2770676047839074 -4.7768645011703565  0.
-0.27706760478399306 -4.776864501170359  0.
-0.8322417110357674 -4.790824286560001  0.
-1.3905325073398287 -4.818743857340011  0.
1.4603469866359013 -5.393418592288716  0.
0.8741303986126365 -5.366320185355214  0.
0.2910305006427547 -5.352770981888645  0.
-0.29103050064284886 -5.352770981888658  0.
-0.8741303986127389 -5.366320185355245  0.
-1.4603469866360383 -5.393418592288757  0.
1.5280774516243336 -5.9956023160943825  0.
0.9147686776055132 -5.969325073007317  0.
0.304576593640292 -5.956186451463852  0.
-0.3045765936404241 -5.956186451463896  0.
-0.9147686776056203 -5.9693250730074165  0.
-1.5280774516244826 -5.995602316094494  0.
1.5937239023053589 -6.624461423033841  0.
0.9541565480140847 -6.599005343793229  0.
0.3177058837764049 -6.586277304172999  0.
-0.31770588377665854 -6.58627730417311  0.
-0.9541565480141952 -6.59900534379348  0.
-1.5937239023054588 -6.6244614230340915  0.
1.6572863386791326 -7.279162307384174  0.
0.9922940098382733 -7.254527391990005  0.
0.3304183710509794 -7.242209934293074  0.
-0.33041837105153854 -7.2422099342932995  0.
-0.9922940098383854 -7.25452739199051  0.
-1.6572863386789858 -7.2791623073846266  0.
1.71876476074581 -7.958871363422552  0.
1.029181063078062 -7.9350576118747815  0.
0.34271405546393435 -7.923150736101151  0.
-0.34271405546511 -7.923150736101483  0.
-1.0291810630781766 -7.935057611875522  0.
-1.7187647607449374 -7.958871363423092  0.
1.778159168505609 -8.662754985426377  0.
1.0648177077334435 -8.639762397724915  0.
0.35459293701527406 -8.628266103874418  0.
-0.3545929370173626 -8.628266103874594  0.
-1.0648177077335717 -8.639762397725296  0.
-1.778159168503098 -8.66275498542623  0.
1.8354695619586692 -9.389979567673597  0.
1.0992039438044032 -9.367808143818326  0.
0.36605501570535276 -9.356722431890319  0.
-0.3660550157079422 -9.356722431889317  0.
-1.0992039438045862 -9.367808143816035  0.
-1.8354695619533277 -9.389979567670215  0.
1.8906959411044364 -10.139711504443127  0.
1.1323397712909078 -10.118361244434043  0.
0.37710029153556207 -10.107686114426798  0.
-0.37710029153545704 -10.107686114421846  0.
-1.132339771291254 -10.118361244422852  0.
-1.8906959410961806 -10.139711504430274  0.
1.9438383059399507 -10.911117190014886  0.
1.1642251901929 -10.890588093852585  0.
0.38772876450967714 -10.880323545762465  0.
-0.3877287644961319 -10.880323545747698  0.
-1.1642251901936322 -10.89058809381936  0.
-1.943838305934617 -10.911117189980622  0.
1.9948966564561545 -11.703363018667893  0.
1.1948602005103244 -11.683655086354797  0.
0.3979404346357066 -11.673801120176096  0.
-0.39794043458195916 -11.673801120142233  0.
-1.1948602005117774 -11.68365508627884  0.
-1.9948966564776935 -11.703363018596363  0.
2.043870992631871 -12.515615384672325  0.
1.2242448022432484 -12.496728616215096  0.
0.40773530192637714 -12.487285231943645  0.
-0.40773530178021156 -12.487285231883629  0.
-1.2242448022456212 -12.496728616081015  0.
-2.0438709927465895 -12.51561538456146  0.
2.0907613144286468 -13.347040682267346  0.
1.2523789953922395 -13.328975077680301  0.
0.41711336639152485 -13.319942275328838  0.
-0.417113366081053 -13.319942275262289  0.
-1.2523789953945967 -13.328975077533189  0.
-2.0907613147797566 -13.347040682190876  0.
2.1355676218011497 -14.196805305612965  0.
1.279262779959229 -14.179560864919324  0.
0.4260746280048993 -14.170938644560758  0.
-0.42607462751073344 -14.170938644603265  0.
-1.2792627799567726 -14.179560865020594  0.
-2.1355676226225295 -14.196805305878735  0.
2.1782899147657595 -15.064075648710729  0.
1.3048961559490655 -15.047652371929923  0.
0.43461908660979753 -15.039440733792148  0.
-0.43461908622595674 -15.039440734307947  0.
-1.3048961559273005 -15.047652373099595  0.
-2.1782899162585285 -15.064075650177628  0.
2.218928193623159 -15.948018105333382  0.
1.3292791233712868 -15.93241599242354  0.
0.4427467417106251 -15.92461493704747  0.
-0.442746742722318 -15.924614938906007  0.
-1.329279123296644 -15.93241599661289  0.
-2.2189281953870705 -15.948018109868949  0.
2.257482459500256 -16.847799069151925  0.
1.3524116822392362 -16.833018119843707  0.
0.45045759212142256 -16.8256276482294  0.
-0.450457598185788 -16.825627653048876  0.
-1.3524116820514684 -16.83301813067108  0.
-2.257482458881243 -16.847799079835823  0.
2.2939527153817485 -17.762584934611866  0.
1.374293832557318 -17.74862514803663  0.
0.4577516356285232 -17.741645261414  0.
-0.4577516548300803 -17.74164527121459  0.
-1.3742938321874187 -17.7486251699821  0.
-2.293952703756297 -17.76258495418692  0.
2.3283389674617903 -18.69154209980639  0.
1.3949255742742195 -18.67840347385795  0.
0.4646288694505782 -18.671834172006363  0.
-0.46462891543665397 -18.67183418655208  0.
-1.3949255737559854 -18.67840350624442  0.
-2.3283389238178502 -18.691542123383126  0.
2.360641225250855 -19.6338369735186  0.
1.4143069071602525 -19.62151950420638  0.
0.47108929383855175 -19.615360779870162  0.
-0.47108937975437926 -19.615360787752216  0.
-1.4143069069870953 -19.62151952111293  0.
-2.3606411095548454 -19.63383696719451  0.
2.390859495010397 -20.588635988727088  0.
1.432437830554326 -20.577139670872846  0.
0.4771329242009218 -20.57139149595801  0.
-0.4771330323711479 -20.571391452421654  0.
-1.4324378325397635 -20.577139571348013  0.
-2.3908592547065326 -20.588635841190992  0.
2.4189937527445102 -21.55510562057211  0.
1.449318342976383 -21.544430453972083  0.
0.4827598213276407 -21.53909275282914  0.
-0.4827598124742119 -21.53909253658385  0.
-1.4493183518737904 -21.544429965379507  0.
-2.4189933832863346 -21.555105058765612  0.
2.4450438693690404 -22.53241238887489  0.
1.4649484418665892 -22.522558399491423  0.
0.4879701504200145 -22.51763101272402  0.
-0.487969554773432 -22.517630366650984  0.
-1.4649484674461881 -22.522556945764382  0.
-2.4450436244914995 -22.532410888621776  0.
2.4690094489222636 -23.519722775278925  0.
1.479328124576356 -23.510690068834933  0.
0.4927642625595804 -23.50617274548995  0.
-0.49276190803246106 -23.506171261432286  0.
-1.4793281815889352 -23.510686739792714  0.
-2.469010374728534 -23.519719637890894  0.
2.4908895639611464 -24.51620287720308  0.
1.492457393964012 -24.50799174443002  0.
0.49714271782257863 -24.5038842978074  0.
-0.4971363129240763 -24.503881661456084  0.
-1.4924574913550086 -24.507985854772937  0.
-2.49089456228151 -24.51619800002706  0.
2.510682523615376 -25.521017440315315  0.
1.5043362778740332 -25.51362850697769  0.
0.5011059582579709 -25.509931476210536  0.
-0.5010923363581786 -25.509928536602814  0.
-1.5043363749525742 -25.513622004514666  0.
-2.5106978744304005 -25.521014029524665  0.
2.528386307548187 -26.533327762987568  0.
1.5149648833401153 -26.526762028071904  0.
0.5046528741994745 -26.523478553047738  0.
-0.5046311358052031 -26.52348034451071  0.
-1.514964772035735 -26.526766321521034  0.
-2.5284222885923384 -26.533339255347293  0.
2.5440014592023728 -27.552288146517665  0.
1.524343527789737 -27.546546492578507  0.
0.5077767130149962 -27.543686370825693  0.
-0.5077596292824592 -27.543708857664083  0.
-1.5243425710209633 -27.546597412682722  0.
-2.544067016399068 -27.55235217035986  0.
2.5575407316144694 -28.577042663006097  0.
1.532472871910168 -28.572123170785375  0.
0.5104558673476336 -28.569710382837776  0.
-0.5104995322307222 -28.569791455217892  0.
-1.5324696447725237 -28.572306358459564  0.
-2.5576185051318747 -28.57724089912003  0.
2.5690525690300454 -29.606727398886488  0.
1.539353142694584 -29.602621103265292  0.
0.5126372434544466 -29.600701807819107  0.
-0.5129016423729922 -29.600913387830584  0.
-1.539345009983398 -29.603094543799074  0.
-2.5690272695743412 -29.607196287763394  0.
2.578675953316951 -30.640508744163263  0.
1.544975968832401 -30.637177861456813  0.
0.5142128333618432 -30.635835642490147  0.
-0.5150512562667596 -30.6362610027961  0.
-1.5449618583100408 -30.638142866674446  0.
-2.578167164876839 -30.641364837877887  0.
2.5867228817761068 -31.677656089967435  0.
1.5492838788509378 -31.675082240455065  0.
0.51501564025715 -31.674370070033806  0.
-0.517022459100059 -31.6750197913389  0.
-1.5492716527385113 -31.67648703699667  0.
-2.5848183979743533 -31.678718359204087  0.
2.5939551151085563 -32.718183242662256  0.
1.5520409212560866 -32.715958641079375  0.
0.5148946042303526 -32.715983771066895  0.
-0.5185895388557297 -32.716175536853925  0.
-1.55215362818159 -32.7167527662806  0.
-2.5887817185767616 -32.71784616703228  0.
2.601068317406605 -33.76253143115509  0.
1.552468403752778 -33.76204044878561  0.
0.514941979768501 -33.759974019457275  0.
-0.5190835826922168 -33.75787930589688  0.
-1.5534736589147797 -33.75691384221057  0.
-2.5902826990083465 -33.75691202650068  0.
2.6099554185535494 -34.8324901227804  0.
1.5558327738210338 -34.81257612900197  0.
0.5171315678002439 -34.801681571307576  0.
-0.5181687472761201 -34.796480891281405  0.
-1.5535569352470078 -34.79476615904742  0.
-2.5904877367509553 -34.79455323801878  0.
</DataArray>
<DataArray type="Float64" Name="Nodal_sigma_xx" NumberOfComponents="1" format="ascii" >
0.04714319086838456 
0.03453571901931317 
0.010964123585120066 
-0.010964123585123366 
-0.03453571901931668 
-0.04714319086838827 
0.046028600669904406 
0.034446786572236335 
0.01143248623728328 
-0.0114324862372867 
-0.03444678657223982 
-0.046028600669907924 
0.04461729828166304 
0.033895344342523795 
0.01158669520169139 
-0.011586695201694946 
-0.033895344342527244 
-0.04461729828166637 
0.04389513106696497 
0.033040519732900175 
0.011092954199416792 
-0.011092954199420347 
-0.03304051973290363 
-0.04389513106696835 
0.04301534084638979 
0.03228706164302095 
0.01077939121982517 
-0.010779391219828675 
-0.032287061643024396 
-0.043015340846393205 
0.04209493820008471 
0.031573708653360004 
0.010526239553316783 
-0.010526239553320256 
-0.03157370865336345 
-0.04209493820008814 
0.04116121193121956 
0.030870670629419797 
0.01029006466380915 
-0.010290064663812612 
-0.030870670629423246 
-0.04116121193122299 
0.040225744875805367 
0.030169098500204772 
0.010056226062301232 
-0.01005622606230467 
-0.030169098500208213 
-0.040225744875808794 
0.039290172573964 
0.02946757113653635 
0.009822484849553503 
-0.009822484849556945 
-0.02946757113653982 
-0.03929017257396744 
0.03835466335812804 
0.02876598726556147 
0.009588655586496608 
-0.00958865558650004 
-0.02876598726556492 
-0.03835466335813145 
0.03741917783235156 
0.028064382648106838 
0.009354793731930206 
-0.00935479373193359 
-0.028064382648110276 
-0.037419177832355065 
0.03648369776399772 
0.02736277354953648 
0.009120924667536763 
-0.009120924667540112 
-0.027362773549539893 
-0.036483697764001274 
0.035548218393089706 
0.026661163906430998 
0.008887054709885324 
-0.008887054709888592 
-0.026661163906434422 
-0.0355482183930933 
0.03461273901157761 
0.025959554285948427 
0.008653184780158904 
-0.00865318478016195 
-0.025959554285951966 
-0.034612739011581475 
0.03367725959290949 
0.02525794469875675 
0.008419314902301444 
-0.008419314902304053 
-0.025257944698760443 
-0.03367725959291389 
0.03274178016224656 
0.02455633512179616 
0.008185445040672607 
-0.00818544504067433 
-0.02455633512180008 
-0.03274178016225204 
0.03180630072922046 
0.02385472554676383 
0.007951575182153513 
-0.007951575182154395 
-0.02385472554676785 
-0.03180630072922709 
0.03087082129595485 
0.02315311597190942 
0.00771770532393108 
-0.007717705323933774 
-0.023153115971912594 
-0.030870821295959472 
0.029935341862722748 
0.02245150639702715 
0.007483835465660752 
-0.007483835465674098 
-0.022451506397026245 
-0.029935341862714345 
0.028999862429526 
0.021749896822130778 
0.007249965607350677 
-0.007249965607396872 
-0.0217498968221177 
-0.028999862429475862 
0.02806438299636494 
0.021048287247237243 
0.007016095749010146 
-0.0070160957491346345 
-0.021048287247196637 
-0.028064382996213263 
0.027128903563251053 
0.02034667767235337 
0.006782225890634788 
-0.006782225890904585 
-0.020346677672264286 
-0.02712890356290552 
0.026193424130168032 
0.019645068097471574 
0.006548356032242177 
-0.0065483560326917295 
-0.01964506809732989 
-0.026193424129567083 
0.025257944696969382 
0.01894345852254399 
0.006314486173953228 
-0.0063144861743753816 
-0.01894345852244162 
-0.025257944696344622 
0.02432246526314606 
0.01824184894742137 
0.006080616316171428 
-0.006080616315551884 
-0.018241848947748374 
-0.024322465263746807 
0.02338698582740542 
0.017540239371750043 
0.005846746459897268 
-0.00584674645522083 
-0.017540239373603786 
-0.02338698583306604 
0.02245150638717152 
0.016838629794876738 
0.00561287660707211 
-0.005612876591440761 
-0.016838629800661392 
-0.022451506406879006 
0.021516026938753707 
0.01613702021600017 
0.005379006760342159 
-0.005379006721565528 
-0.01613702022972241 
-0.02151602698887608 
0.020580547480618806 
0.015435410635273705 
0.005145136920320852 
-0.005145136844981716 
-0.015435410660633564 
-0.02058054758059059 
0.01964506802569253 
0.01473380105746338 
0.004911267075779253 
-0.00491126697291781 
-0.014733801088628786 
-0.019645068169097682 
0.01870958863399575 
0.014032191500980932 
0.004677397178295037 
-0.0046773971537967425 
-0.014032191495295996 
-0.018709588694374543 
0.017774109480498866 
0.013330582015350385 
0.004443527090859565 
-0.004443527524627906 
-0.013330581831111951 
-0.017774108981450862 
0.0168386309595858 
0.012628972704834093 
0.004209656512021141 
-0.004209658386867031 
-0.012628971991817173 
-0.016838628635940385 
0.015903153754786358 
0.011927363733221775 
0.00397578493623511 
-0.003975790246074109 
-0.011927361813631052 
-0.015903146974300855 
0.01496767857901276 
0.011225755220816754 
0.0037419118867621174 
-0.0037419235790193584 
-0.011225751176270985 
-0.014967663283599768 
0.01403220476677531 
0.010524146804492459 
0.0035080380594096783 
-0.0035080576897856906 
-0.010524140442800275 
-0.01403217822941942 
0.01309672594612868 
0.00982253639779096 
0.003274168725691128 
-0.0032741873053731343 
-0.009822531698758099 
-0.013096698184840912 
0.012161219884743309 
0.009120917471745723 
0.0030403215254311456 
-0.0030402947775194323 
-0.00912093146780462 
-0.012161245388456223 
0.011225629979396183 
0.008419274513951627 
0.0028065402536314532 
-0.002806336281461227 
-0.00841935524333105 
-0.011225876464983808 
0.010289843188106874 
0.0077175788307011 
0.002572910100520601 
-0.002572226592116775 
-0.007717831694575546 
-0.010290704477171665 
0.009353696924943151 
0.007015795167390586 
0.0023395478407890148 
-0.002337849310958648 
-0.007016396303262019 
-0.009355891712866733 
0.008417120119746081 
0.00631393077592073 
0.002106483952435718 
-0.002103177502866207 
-0.006315044012310213 
-0.008421506546111955 
0.007480668244452517 
0.005612197966099296 
0.0018732393939089886 
-0.001868707548041844 
-0.005613573516136894 
-0.007486980836118199 
0.006546937171465091 
0.004911420627647507 
0.0016377262272484138 
-0.0016365805171328052 
-0.004911194812982444 
-0.006549680221032373 
0.005623617135723972 
0.0042137531802561535 
0.0013939498721114855 
-0.0014127855007634717 
-0.004205758439974854 
-0.005601935358988128 
0.004728243764540948 
0.0035235030868296527 
0.0011281834103524927 
-0.0012100100019511225 
-0.003492305292624124 
-0.0046269861697593746 
0.00389481210865897 
0.0028448063788972574 
0.0008141332258112951 
-0.0010460317986522995 
-0.002761539280140757 
-0.00359754916048987 
0.0031619045860795843 
0.002173283225788362 
0.00041522522998131 
-0.0009247356540833115 
-0.0019961775230211577 
-0.002497095143410213 
0.0025612124035149153 
0.0014442405216428128 
-8.246632127859373e-05 
-0.0007505424634576051 
-0.0011981398804792914 
-0.0013873961163712702 
0.0015565456915000652 
0.000652298762154737 
-0.000299397997047917 
-0.0004043598011773504 
-0.0004788748487027885 
-0.0004958779219561192 
0.0008153712878002694 
0.00025399983272653874 
-0.0002442199148654582 
-0.00018101399851241955 
-0.00016346572903613653 
-0.00014597166843115846 
</DataArray>
<DataArray type="Float64" Name="Nodal_sigma_yy" NumberOfComponents="1" format="ascii" >
0.011421582204489293 
0.008805638780459634 
0.0030948476782146983 
-0.003094847678215824 
-0.008805638780460687 
-0.011421582204490303 
0.00539656518094915 
0.004546747843777258 
0.001848465253302479 
-0.001848465253303268 
-0.0045467478437778985 
-0.005396565180949672 
-0.00031619896034433374 
5.923213429606623e-05 
0.0002173316144681565 
-0.00021733161446842918 
-5.923213429620089e-05 
0.0003161989603443034 
-3.9714204639426653e-05 
-0.00013112507666601203 
-0.00011126797434631215 
0.00011126797434627355 
0.00013112507666598688 
3.9714204639399765e-05 
-4.315791151555774e-05 
-5.683552525922184e-05 
-3.525656950143115e-05 
3.525656950145782e-05 
5.683552525921794e-05 
4.3157911515543865e-05 
-6.51760978735965e-06 
-1.1992686048984064e-05 
-8.733881155289168e-06 
8.73388115532343e-06 
1.199268604899122e-05 
6.517609787365722e-06 
-1.07811008336154e-06 
-1.6113876662525017e-06 
-1.0723326245605644e-06 
1.0723326245811642e-06 
1.6113876662676805e-06 
1.0781100833953672e-06 
6.169919743170826e-08 
3.5612557141304416e-08 
4.7629584403038536e-09 
-4.762958429244991e-09 
-3.5612557150411714e-08 
-6.16991974126263e-08 
5.396114577047029e-08 
8.358176033533213e-08 
5.6601187459692174e-08 
-5.6601187489507734e-08 
-8.358176039301168e-08 
-5.396114578781752e-08 
1.7904900506682253e-08 
2.7213588665734104e-08 
1.8261138432260982e-08 
-1.826113844066355e-08 
-2.7213588692188637e-08 
-1.7904900463314166e-08 
3.2267032986504907e-09 
5.277335091494195e-09 
3.663983468596378e-09 
-3.6639833517735938e-09 
-5.277335088241589e-09 
-3.226703420081134e-09 
3.0965511491759523e-10 
5.334956367734206e-10 
3.786680477914448e-10 
-3.786679993818178e-10 
-5.334956692994858e-10 
-3.0965540288169224e-10 
-5.198316343352216e-11 
-6.624493466798886e-11 
-4.025344551498826e-11 
4.0253268410563384e-11 
6.624486592957113e-11 
5.198300991049454e-11 
-3.1154551161094446e-11 
-4.7205128477986746e-11 
-3.1628005905471115e-11 
3.16275010467295e-11 
4.720494264573438e-11 
3.1154577181946586e-11 
-8.294671373365592e-12 
-1.2979054571544968e-11 
-8.831931632433468e-12 
8.831143796924831e-12 
1.2978759451713617e-11 
8.29480581443498e-12 
-1.3467447643189523e-12 
-2.205190891002573e-12 
-1.5317641903142554e-12 
1.5317875006609638e-12 
2.205220489721882e-12 
1.3469746151795192e-12 
-7.309344102202076e-14 
-1.4361580501220939e-13 
-1.0580517581862403e-13 
1.0998141416682095e-13 
1.455300723679498e-13 
7.362513376740765e-14 
3.977981138936215e-14 
5.771500898726911e-14 
4.257621273769108e-14 
-2.674062685691092e-14 
-4.990148919081783e-14 
-3.681950577760773e-14 
2.064060727891004e-14 
3.570158491755793e-14 
3.788782438826632e-14 
4.315829377904423e-15 
-1.4104386061863927e-14 
-1.182734465920987e-14 
1.3057263603677427e-14 
2.922998214999195e-14 
4.8788799606250266e-14 
4.055807881382656e-14 
1.7392771251012462e-14 
5.844283390565863e-15 
1.6448647999212085e-14 
3.9075622078332817e-14 
7.153796327021011e-14 
7.01966967626283e-14 
3.727183492396868e-14 
1.5523606705647452e-14 
1.641308616795456e-14 
3.334171046892598e-14 
5.399185872695389e-14 
5.3893521589909454e-14 
3.315013194504779e-14 
1.6226603394287054e-14 
-1.6635564453748586e-14 
-6.397410812902793e-14 
-1.495008544044607e-13 
-1.4954086146462542e-13 
-6.396771133621026e-14 
-1.6542756747783827e-14 
-1.528586285326483e-13 
-4.3021478306898286e-13 
-8.815283030448595e-13 
-8.816565641618646e-13 
-4.303042297482129e-13 
-1.5278099965709835e-13 
-5.304762705493626e-13 
-1.4018464123896623e-12 
-2.7782395253719144e-12 
-2.7784549563435873e-12 
-1.402084828447392e-12 
-5.30522240721476e-13 
-1.3462308524891942e-12 
-3.4222373199166434e-12 
-6.63193921979742e-12 
-6.632095344910258e-12 
-3.422041296163858e-12 
-1.3455265547579476e-12 
-2.677295017627923e-12 
-6.5337520550184935e-12 
-1.2342991158233868e-11 
-1.2343021082213829e-11 
-6.533356538065971e-12 
-2.6764441357629565e-12 
-3.821989166125084e-12 
-8.61477404169586e-12 
-1.5408317064749197e-11 
-1.540842765337079e-11 
-8.614557851782667e-12 
-3.8213356090555095e-12 
-1.5447131421209015e-12 
-8.948032202346634e-13 
1.8032851416532186e-12 
1.8030611454843831e-12 
-8.948236032355061e-13 
-1.544305915784916e-12 
1.3561804890899198e-11 
4.099063200414116e-11 
8.703048279604369e-11 
8.703089663601293e-11 
4.099020753899063e-11 
1.3560128280659667e-11 
6.264588544094285e-11 
1.698188417144364e-10 
3.413839906970433e-10 
3.413850569014597e-10 
1.698188920214172e-10 
6.264385364607161e-11 
1.8224925561749483e-10 
4.721459025613592e-10 
9.25189402140817e-10 
9.251923237404112e-10 
4.721490997651456e-10 
1.8224980682587932e-10 
4.1013745264578683e-10 
1.0235664238389917e-09 
1.9611141078987792e-09 
1.9611252007506767e-09 
1.0235824322466988e-09 
4.1014728375740606e-10 
7.093312226653936e-10 
1.68064008787246e-09 
3.1135277776800753e-09 
3.11356044360733e-09 
1.6806904713979366e-09 
7.093666578618374e-10 
7.353682940358652e-10 
1.4740420621844712e-09 
2.394908741739049e-09 
2.3949104722341364e-09 
1.4740543257036644e-09 
7.353893600840766e-10 
-7.083975331247799e-10 
-2.759659300014504e-09 
-6.466515732307882e-09 
-6.4672285964831235e-09 
-2.7606711273009572e-09 
-7.089954593472031e-10 
-6.660122902181834e-09 
-1.8749980117409738e-08 
-3.845566495722498e-08 
-3.846089892217913e-08 
-1.8757618688934174e-08 
-6.664932115322403e-09 
-2.317058231155085e-08 
-6.126923855201069e-08 
-1.214922501455466e-07 
-1.215151602243828e-07 
-6.130315438011022e-08 
-2.3192593810077503e-08 
-5.8891719922340643e-08 
-1.4984898648572878e-07 
-2.905253798703313e-07 
-2.905796961241914e-07 
-1.4993258411617446e-07 
-5.895028267551179e-08 
-1.17501182659175e-07 
-2.868325517960623e-07 
-5.419376173691152e-07 
-5.418449844904255e-07 
-2.867125603819051e-07 
-1.1744646558824005e-07 
-1.6898845261385624e-07 
-3.8103899935667705e-07 
-6.80547093145052e-07 
-6.786880895847503e-07 
-3.783860968712598e-07 
-1.674006547636251e-07 
-7.60576150467436e-08 
-5.401079054658041e-08 
6.071307238399317e-08 
7.212651217880034e-08 
-3.716058706365252e-08 
-6.518408767050218e-08 
5.702547142562818e-07 
1.7491948660928254e-06 
3.7638808844314152e-06 
3.808160025534458e-06 
1.8143748650154598e-06 
6.120564298954653e-07 
2.6751741870897168e-06 
7.358792749005038e-06 
1.4876255520200618e-05 
1.4946750198592337e-05 
7.477112248432266e-06 
2.7708238291607352e-06 
8.235675731838206e-06 
2.095256123311979e-05 
4.0686517914371285e-05 
4.030020340119468e-05 
2.0380875041282426e-05 
7.864932374516682e-06 
1.9476396657699025e-05 
4.817669879598457e-05 
8.82722255677365e-05 
8.356929134824325e-05 
4.171208075847384e-05 
1.595302902166406e-05 
4.678960406491879e-05 
9.255091796154613e-05 
0.00014822181100956842 
0.00012474032155368526 
5.5865259280395136e-05 
2.0381265614383116e-05 
5.595557016211701e-05 
0.00012744437977247242 
0.00014665978401221265 
5.725295046162413e-05 
1.0776284427607517e-05 
1.4330465735642442e-06 
0.00020745342043707927 
-7.0376629293544715e-06 
-0.0003064268846329004 
-0.00032795346003646093 
-0.00016421197613828768 
-6.384205517366603e-05 
-0.002476604318858097 
-0.002352579931858255 
-0.0018448490782424839 
-0.001059529500592257 
-0.0003895769704723736 
-0.0001212375513867881 
-0.005323058667671913 
-0.004555341566318644 
-0.0029617727491830243 
-0.00148849257356569 
-0.0004866027278949899 
-0.0001321413420592741 
</DataArray>
<DataArray type="Float64" Name="Nodal_sigma_xy" NumberOfComponents="1" format="ascii" >
-0.003875386468726526 
-0.001726788480676227 
0.0011644817150355884 
0.0011644817150354273 
-0.0017267884806767121 
-0.003875386468727174 
-0.0019671652742479047 
-0.0012894736565499353 
-0.00022694370633021183 
-0.00022694370633032687 
-0.0012894736565502245 
-0.001967165274248253 
-0.00016121054281949374 
-0.0008147321691703007 
-0.0016046625594243124 
-0.0016046625594243415 
-0.000814732169170328 
-0.00016121054281949057 
-0.0003600857569842084 
-0.000815935156421934 
-0.001504021965090389 
-0.0015040219650903743 
-0.0008159351564218933 
-0.00036008575698415646 
-0.0004883775479665763 
-0.0008658936088949021 
-0.001389917617126236 
-0.0013899176171262176 
-0.0008658936088948637 
-0.0004883775479665364 
-0.000525787359593854 
-0.0008798755597861385 
-0.0013572307604213431 
-0.001357230760421328 
-0.0008798755597861063 
-0.0005257873595938201 
-0.0005320541781543502 
-0.0008828313581663151 
-0.001351141552760914 
-0.0013511415527609066 
-0.0008828313581662946 
-0.0005320541781543243 
-0.0005325001572732791 
-0.0008831249550272429 
-0.001350624966340553 
-0.0013506249663405518 
-0.000883124955027232 
-0.0005325001572732597 
-0.000532350354844976 
-0.0008830973076910961 
-0.0013507275148907992 
-0.001350727514890803 
-0.0008830973076910922 
-0.0005323503548449605 
-0.0005322798613542282 
-0.0008830730482901727 
-0.0013507870210369781 
-0.0013507870210369833 
-0.00088307304829018 
-0.0005322798613542322 
-0.0005322627147251645 
-0.0008830662980161611 
-0.0013508023446255513 
-0.0013508023446255344 
-0.0008830662980161416 
-0.0005322627147251593 
-0.00053226019964389 
-0.0008830651122225835 
-0.001350804787959868 
-0.001350804787959821 
-0.0008830651122225077 
-0.0005322601996438326 
-0.0005322601411385121 
-0.0008830650280744763 
-0.0013508049013607713 
-0.0013508049013606772 
-0.0008830650280743028 
-0.000532260141138353 
-0.0005322602390234303 
-0.0008830650543155405 
-0.0013508048261773602 
-0.0013508048261771381 
-0.0008830650543151596 
-0.000532260239023112 
-0.0005322602749445397 
-0.000883065067234801 
-0.0013508047952978553 
-0.0013508047952974275 
-0.0008830650672340262 
-0.0005322602749438458 
-0.0005322602825952284 
-0.000883065070391849 
-0.0013508047883157134 
-0.0013508047883152123 
-0.000883065070390769 