<?xml version="1.0"?>
<VTKFile type="UnstructuredGrid" version="0.1" byte_order="LittleEndian" compressor="vtkZLibDataCompressor">
<UnstructuredGrid>
<Piece NumberOfPoints="306" NumberOfCells="250">
<PointData>
<DataArray type="Float64" Name="displacement" NumberOfComponents="3" format="ascii" >
0.0 0.0  0.
0.0 0.0  0.
0.0 0.0  0.
0.0 0.0  0.
0.0 0.0  0.
0.0 0.0  0.
0.038942797809052396 -0.026003227907647877  0.
0.020251386116237224 -0.009181828596088659  0.
0.006666379902133363 -0.0026079563546353712  0.
-0.006666379902138216 -0.0026079563546362065  0.
-0.020251386116242203 -0.009181828596091386  0.
-0.03894279780905887 -0.026003227907653505  0.
0.0783244114555457 -0.05135954324756514  0.
0.04534769606148875 -0.035744506346545676  0.
0.01465996529133279 -0.027320725566545353  0.
-0.014659965291343472 -0.027320725566546723  0.
-0.045347696061499895 -0.035744506346549944  0.
-0.0783244114555578 -0.05135954324757221  0.
0.1174138445220318 -0.0923393461841723  0.
0.06945155291533826 -0.07682506854767536  0.
0.0229351234943765 -0.06893938988593117  0.
-0.022935123494393486 -0.06893938988593273  0.
-0.06945155291535558 -0.07682506854768001  0.
-0.11741384452204955 -0.09233934618417991  0.
0.15609071282973438 -0.14873779085845745  0.
0.09280501663362536 -0.13361830350266657  0.
0.03077875352592077 -0.1260192112697141  0.
-0.030778753525944096 -0.12601921126971566  0.
-0.09280501663364887 -0.13361830350267126  0.
-0.15609071282975803 -0.14873779085846514  0.
0.1940091432500194 -0.220536168769757  0.
0.11557597334132783 -0.20575216955799697  0.
0.03838503666422405 -0.1983560842986475  0.
-0.03838503666425363 -0.19835608429864907  0.
-0.11557597334135747 -0.20575216955800157  0.
-0.19400914325004912 -0.22053616876976462  0.
0.2311057263121523 -0.30735412081504326  0.
0.13783371518021437 -0.2929015226963856  0.
0.045806153324344366 -0.2856751899187413  0.
-0.045806153324380136 -0.28567518991874286  0.
-0.1378337151802502 -0.29290152269639014  0.
-0.23110572631218815 -0.30735412081505087  0.
0.26736835347826987 -0.40884820526815624  0.
0.15959029634333863 -0.3947242275315581  0.
0.05305837618200385 -0.3876624827522662  0.
-0.053058376182045765 -0.3876624827522678  0.
-0.15959029634338057 -0.3947242275315626  0.
-0.26736835347831184 -0.4088482052681638  0.
0.30279682308024713 -0.5246808550909428  0.
0.18084704778518051 -0.5108853304560751  0.
0.06014386682281277 -0.5039876431956603  0.
-0.060143866822860825 -0.5039876431956618  0.
-0.1808470477852286 -0.5108853304560796  0.
-0.30279682308029526 -0.5246808550909503  0.
0.3373914992199011 -0.654518099475841  0.
0.2016037877125535 -0.6410510187767375  0.
0.06706274981875937 -0.6343174938326716  0.
-0.06706274981881352 -0.634317493832673  0.
-0.20160378771260773 -0.641051018776742  0.
-0.33739149921995537 -0.6545180994758487  0.
0.3711525338575028 -0.7980264514391243  0.
0.22186040151989878 -0.7848878309351183  0.
0.07381494814934161 -0.7783185222314024  0.
-0.0738149481494019 -0.778318522231404  0.
-0.2218604015199591 -0.784887830935123  0.
-0.3711525338575633 -0.798026451439132  0.
0.40407995904355587 -0.9548724861753484  0.
0.24161685732963817 -0.9420623302014561  0.
0.08040043275467645 -0.9356572520475369  0.
-0.08040043275474293 -0.9356572520475386  0.
-0.24161685732970462 -0.9420623302014609  0.
-0.40407995904362226 -0.9548724861753561  0.
0.4361737789532619 -1.1247227682879313  0.
0.2608731498372955 -1.1122410777870975  0.
0.08681919698426417 -1.1060002324040703  0.
-0.08681919698433667 -1.1060002324040716  0.
-0.2608731498373681 -1.112241077787102  0.
-0.4361737789533344 -1.1247227682879386  0.
0.46743399345924636 -1.307243857172716  0.
0.2796292786992787 -1.2950906322312892  0.
0.09307123999080069 -1.289014019723802  0.
-0.09307123999087896 -1.2890140197238031  0.
-0.27962927869935744 -1.2950906322312927  0.
-0.4674339934593253 -1.3072438571727232  0.
0.4978606023308255 -1.5021023107693292  0.
0.2978852440498336 -1.490277551377173  0.
0.09915656178923138 -1.4843651716747117  0.
-0.09915656178931499 -1.4843651716747126  0.
-0.29788524404991834 -1.4902775513771767  0.
-0.4978606023309114 -1.502102310769336  0.
0.5274536054945378 -1.7089646867908819  0.
0.3156410459500556 -1.6974683929398968  0.
0.10507516242527518 -1.69172024601396  0.
-0.10507516242536338 -1.6917202460139609  0.
-0.3156410459501465 -1.6974683929399  0.
-0.5274536054946317 -1.7089646867908888  0.
0.556213002936322 -1.9274975429378656  0.
0.3328966844145166 -1.9163297146258604  0.
0.11082704191362597 -1.9107458004700035  0.
-0.11082704191371852 -1.9107458004700053  0.
-0.3328966844146134 -1.9163297146258655  0.
-0.5562130029364263 -1.9274975429378753  0.
0.5841387946548068 -2.1573674369175464  0.
0.34965215944530803 -2.1465280741441424  0.
0.11641220025716545 -2.141108392757513  0.
-0.11641220025726491 -2.141108392757519  0.
-0.3496521594454106 -2.146528074144157  0.
-0.5841387946549231 -2.157367436917567  0.
0.6112309806501873 -2.3982409264400095  0.
0.3659074710424626 -2.387730029205181  0.
0.12183063745618049 -2.382474580587794  0.
-0.12183063745629857 -2.3824745805878127  0.
-0.36590747104257065 -2.3877300292052235  0.
-0.611230980650312 -2.398240926440058  0.
0.6374895609226028 -2.649784569215992  0.
0.3816626192058939 -2.639602137519746  0.
0.12708235351062536 -2.6345109216716533  0.
-0.12708235351079566 -2.6345109216716986  0.
-0.38166261920600686 -2.6396021375198493  0.
-0.6374895609227114 -2.6497845692160973  0.
0.6629145354721161 -2.9116649229563274  0.
0.396917603935571 -2.901810956798659  0.
0.1321673484204545 -2.896883973719887  0.
-0.13216734842075056 -2.896883973719978  0.
-0.3969176039356881 -2.901810956798864  0.
-0.6629145354721293 -2.911664922956513  0.
0.6875059042987893 -3.183548545371883  0.
0.4116724252314871 -3.174023044752775  0.
0.1370856221856356 -3.1692602944433226  0.
-0.1370856221861816 -3.1692602944434562  0.
-0.41167242523160846 -3.1740230447530733  0.
-0.6875059042985153 -3.1835485453721035  0.
0.7112636674027093 -3.4651019941736183  0.
0.42592708309363947 -3.455904959093034  0.
0.14183717480617036 -3.4513064415528354  0.
-0.14183717480708483 -3.451306441552907  0.
-0.4259270830937696 -3.455904959093188  0.
-0.7112636674017834 -3.465101994173563  0.
0.7341878247839322 -3.755991827072712  0.
0.4396815775220221 -3.747123257530604  0.
0.14642200628220042 -3.742688972759402  0.
-0.14642200628331836 -3.7426889727590016  0.
-0.4396815775221774 -3.7471232575296898  0.
-0.7341878247818775 -3.7559918270713624  0.
0.7562783764422364 -4.055884601780729  0.
0.4529359085166218 -4.047344497777097  0.
0.15084011661428234 -4.0430744457742  0.
-0.1508401166143256 -4.043074445772219  0.
-0.4529359085168455 -4.047344497772622  0.
-0.7562783764390193 -4.055884601775591  0.
0.7775353223764379 -4.364446876009637  0.
0.46569007607741586 -4.356235237544719  0.
0.1550915058039266 -4.352129418308672  0.
-0.15509150579859676 -4.3521294183027655  0.
-0.465690076077797 -4.356235237531431  0.
-0.777535322374393 -4.3644468759959345  0.
0.7979586625829144 -4.6813452074710415  0.
0.47794408020438195 -4.673462034545806  0.
0.15917617385433624 -4.669520448074326  0.
-0.1591761738329284 -4.669520448060782  0.
-0.4779440802050546 -4.673462034515425  0.
-0.7979586625916216 -4.681345207442433  0.
0.8175483970531947 -5.006246153873016  0.
0.48969792089754743 -4.998691446490127  0.
0.16309412077060204 -4.994914092781547  0.
-0.16309412071222984 -4.9949140927575435  0.
-0.48969792089859093 -4.9986914464364975  0.
-0.8175483970991764 -5.006246153828673  0.
0.8363045257718977 -5.338816272911223  0.
0.5009515981571389 -5.3315900310764075  0.
0.16684534655665859 -5.327976910135824  0.
-0.1668453464325667 -5.327976910109205  0.
-0.5009515981581791 -5.331590031017565  0.
-0.8363045259124394 -5.338816272880638  0.
0.854227048720891 -5.678722122249666  0.
0.5117051119839295 -5.671824345972213  0.
0.17042985120200566 -5.668375457828788  0.
-0.17042985100443908 -5.668375457845792  0.
-0.5117051119830469 -5.6718243460127225  0.
-0.8542270490495433 -5.678722122355978  0.
0.8713159659067258 -6.025630259488964  0.
0.5219584623798583 -6.019060948776644  0.
0.17384763464396222 -6.0157762935215375  0.
-0.17384763449052834 -6.015776293727857  0.
-0.5219584623712551 -6.019060949244517  0.
-0.8713159665039363 -6.025630260075728  0.
0.8875712774496758 -6.379207242138214  0.
0.5317116493487409 -6.372966396974281  0.
0.17709869668429035 -6.369845974823855  0.
-0.177098697089073 -6.369845975567271  0.
-0.5317116493189891 -6.372966398650025  0.
-0.8875712781553461 -6.379207243952445  0.
0.9029929838005047 -6.739119627665817  0.
0.5409646728959142 -6.733207247942533  0.
0.1801830368486062 -6.730251059296814  0.
-0.1801830392744609 -6.730251061224604  0.
-0.5409646728209153 -6.733207252273484  0.
-0.9029929835530077 -6.7391196319393805  0.
0.9175810861530919 -7.1050339738499755  0.
0.5497175330231405 -7.099450059219885  0.
0.18310065425144353 -7.096658104570834  0.
-0.18310066193217703 -7.096658108491071  0.
-0.5497175328752912 -7.099450067998074  0.
-0.9175810815030214 -7.105033981679998  0.
0.9313355869850982 -7.476616839927963  0.
0.5579702297098947 -7.471361389548591  0.
0.18585154778026255 -7.468733668807958  0.
-0.185851566174806 -7.468733674626245  0.
-0.5579702295027138 -7.471361402503179  0.
-0.9313355695276351 -7.476616849358659  0.
0.9442564901007144 -7.85353478941302  0.
0.5657227628643016 -7.848607801688136  0.
0.18843571753544922 -7.84614431195365  0.
-0.1884357519018953 -7.846144315106472  0.
-0.5657227627951534 -7.8486078084507565  0.
-0.9442564438224252 -7.853534786883387  0.
0.956343798004521 -8.235454395496584  0.
0.5729751322219245 -8.230855868354892  0.
0.19085316968039448 -8.228556598388959  0.
-0.19085321294860222 -8.228556580974418  0.
-0.5729751330162167 -8.23085582854496  0.
-0.956343701883092 -8.23545433648215  0.
0.9675975010981569 -8.62204224823476  0.
0.5797273371907409 -8.617772181594754  0.
0.19310392853107908 -8.61563710113758  0.
-0.19310392498982681 -8.615637014639463  0.
-0.579727340749823 -8.617771986157724  0.
-0.9675973533150046 -8.622042023512162  0.
0.9780175477479587 -9.012964955556034  0.
0.5859793767468175 -9.009023359802653  0.
0.19518806016802615 -9.007052405095692  0.
-0.19518782190951417 -9.007052146666478  0.
-0.5859793869787779 -9.009022778311836  0.
-0.9780174497970626 -9.012964355454791  0.
0.987603779569239 -9.407889110117807  0.
0.591731249830719 -9.404276027540213  0.
0.19710570502385016 -9.40246909820222  0.
-0.19710476321312526 -9.402468504579156  0.
-0.5917312726358731 -9.404274695923327  0.
-0.9876041498918695 -9.407887855162597  0.
0.996355825584784 -9.806481150887624  0.
0.5969829575857766 -9.8031966977784  0.
0.19885708712904732 -9.801553719129355  0.
-0.19885452516977095 -9.80155266458883  0.
-0.5969829965422994 -9.80319434191557  0.
-0.9963578249130534 -9.806479200017217  0.
1.0042730094464691 -10.208406976132668  0.
0.6017345111497807 -10.205451402797621  0.
0.20044238330320244 -10.203972590490759  0.
-0.2004369345434116 -10.203971414647672  0.
-0.6017345499813225 -10.205448801812413  0.
-1.0042791497726045 -10.208405611816408  0.
1.0113545230195884 -10.61333110520172  0.
0.6059859533362103 -10.610704811235454  0.
0.201861149679802 -10.60939142122579  0.
-0.2018524543222212 -10.609392137810978  0.
-0.6059859088145849 -10.610706528615106  0.
-1.0113689154373766 -10.61333570214561  0.
1.017600583681259 -11.020915258613904  0.
0.6097374111160563 -11.018618597038241  0.
0.20311068520600933 -11.017474548337118  0.
-0.2031038517131232 -11.017483543072473  0.
-0.609737028408675 -11.01863896507993  0.
-1.0176268065600658 -11.020940868150785  0.
1.023016292646095 -11.430817065209423  0.
0.6129891487642266 -11.428849268321136  0.
0.20418234693906387 -11.427884153142097  0.
-0.20419981289242878 -11.427916582094143  0.
-0.6129878579092987 -11.428922543390811  0.
-1.023047402053186 -11.430896359654998  0.
1.0276210276123245 -11.842690959561725  0.
0.615741257077992 -11.841048441313248  0.
0.20505489738178787 -11.840280723134773  0.
-0.20516065694933722 -11.840365355139365  0.
-0.6157380039936479 -11.841237817526762  0.
-1.027610907830172 -11.84287851511249  0.
1.0314703813270862 -12.256203497672585  0.
0.6179903875331183 -12.254871144590005  0.
0.2056851333447464 -12.25433425700334  0.
-0.20602050250684423 -12.25450440112572  0.
-0.617984743324305 -12.255257146677057  0.
-1.0312668659511717 -12.256545935158433  0.
1.034689152710749 -12.6710624359944  0.
0.6197135515405323 -12.670032896189452  0.
0.20600625610286866 -12.66974802802095  0.
-0.206808983640164 -12.670007916542986  0.
-0.6197086610956932 -12.670594814806094  0.
-1.0339273591901774 -12.671487343689062  0.
1.037582046043729 -13.087273297072475  0.
0.6208163685025919 -13.086383456439323  0.
0.20595784169214942 -13.08639350843433  0.
-0.20743581554243276 -13.086470214749145  0.
-0.6208614512729246 -13.086701106519813  0.
-1.0355126874311422 -13.087138466820486  0.
1.040427326962949 -13.50501257246976  0.
0.6209873615012681 -13.504816179521969  0.
0.20597679190740814 -13.503989607790635  0.
-0.2076334330770283 -13.503151722366475  0.
-0.6213894635662007 -13.502765536891951  0.
-1.0361130796037767 -13.502764810607996  0.
1.043982167421726 -13.932996049120034  0.
0.6223331095285702 -13.925030451608661  0.
0.20685262712010571 -13.920672628530907  0.
-0.2072674989105892 -13.918592356520435  0.
-0.6214227740990921 -13.917906463626839  0.
-1.0361950947008205 -13.917821295215383  0.
</DataArray>
<DataArray type="Float64" Name="Nodal_sigma_xx" NumberOfComponents="1" format="ascii" >
0.01885727634737367 
0.01381428760773944 
0.004385649434051783 
-0.004385649434055075 
-0.013814287607742946 
-0.018857276347377386 
0.01841144026798086 
0.01377871462890849 
0.004572994494917209 
-0.004572994494920627 
-0.013778714628911969 
-0.018411440267984382 
0.017846919312683132 
0.01355813773702285 
0.004634678080680394 
-0.004634678080683946 
-0.01355813773702629 
-0.017846919312686463 
0.017558052426803007 
0.013216207893172608 
0.00443718167977021 
-0.004437181679773757 
-0.01321620789317605 
-0.01755805242680637 
0.01720613633857196 
0.012914824657220152 
0.00431175648793329 
-0.004311756487936799 
-0.012914824657223597 
-0.017206136338575366 
0.016837975280048916 
0.012629483461355017 
0.004210495821329691 
-0.004210495821333168 
-0.01262948346135848 
-0.01683797528005236 
0.01646448477250187 
0.012348268251778195 
0.004116025865526396 
-0.004116025865529855 
-0.01234826825178165 
-0.01646448477250531 
0.016090297950335224 
0.012067639400091455 
0.004022490424922984 
-0.004022490424926427 
-0.012067639400094898 
-0.01609029795033866 
0.0157160690295977 
0.011787028454623358 
0.003928993939823652 
-0.003928993939827088 
-0.011787028454626805 
-0.015716069029601147 
0.015341865343262345 
0.011506394906232693 
0.0038354622346006596 
-0.0038354622346040822 
-0.011506394906236114 
-0.01534186534326578 
0.014967671132950793 
0.011225753059250106 
0.003741917492773856 
-0.00374191749277727 
-0.01122575305925352 
-0.014967671132954209 
0.014593479105608242 
0.010945109419821209 
0.0036483698670162408 
-0.0036483698670196395 
-0.01094510941982463 
-0.014593479105611673 
0.014219287357244105 
0.01066446556257833 
0.0035548218839554337 
-0.0035548218839588155 
-0.010664465562581747 
-0.01421928735724755 
0.013845095604638332 
0.010383821714384601 
0.0034612739120646195 
-0.0034612739120679203 
-0.01038382171438803 
-0.013845095604641852 
0.01347090383717013 
0.010103177879507217 
0.0033677259609214256 
-0.0033677259609244813 
-0.010103177879510717 
-0.013470903837173928 
0.013096712064904066 
0.009822534048722296 
0.0032741780162696453 
-0.0032741780162723515 
-0.009822534048725875 
-0.01309671206490828 
0.012722520291692694 
0.009541890218708628 
0.0031806300728617113 
-0.003180630072864175 
-0.009541890218712247 
-0.012722520291697285 
0.012348328518385594 
0.009261246388766218 
0.003087082129572532 
-0.003087082129575671 
-0.009261246388769509 
-0.012348328518389452 
0.011974136745091866 
0.008980602558812677 
0.002993534186264224 
-0.002993534186271542 
-0.00898060255881434 
-0.011974136745090633 
0.011599944971812345 
0.008699958728853515 
0.0028999862429400164 
-0.002899986242960408 
-0.008699958728850241 
-0.01159994497179432 
0.011225753198547244 
0.008419314898895582 
0.0028064382996036696 
-0.0028064382996552716 
-0.008419314898881165 
-0.011225753198488366 
0.010851561425300981 
0.008138671068941478 
0.002712890356253331 
-0.0027128903563631494 
-0.0081386710689077 
-0.010851561425164413 
0.010477369652066958 
0.007858027238988163 
0.0026193424128960695 
-0.002619342413077857 
-0.00785802723893343 
-0.010477369651828375 
0.010103177878786725 
0.007577383409016614 
0.0025257944695802996 
-0.0025257944697510675 
-0.007577383408977465 
-0.010103177878538698 
0.009728986105256725 
0.007296739578967105 
0.0024322465264674633 
-0.0024322465262214595 
-0.007296739579099641 
-0.009728986105498922 
0.009354794330959957 
0.007016095748698164 
0.0023386985839577105 
-0.0023386985820888074 
-0.0070160957494413735 
-0.009354794333226082 
0.008980602554865972 
0.006735451917948497 
0.0022451506428276214 
-0.002245150636576533 
-0.006735451920263993 
-0.0089806025627507 
0.008606410775498305 
0.00645480808639743 
0.002151602704135632 
-0.0021516026886261985 
-0.006454808091888137 
-0.00860641079554917 
0.008232218992243953 
0.006174164254106563 
0.0020580547681269446 
-0.0020580547379926415 
-0.006174164264252178 
-0.008232219032234356 
0.007858027210272876 
0.0058935204229821755 
0.001964506830310215 
-0.0019645067891670464 
-0.005893520435449707 
-0.007858027267636365 
0.007483835453593752 
0.0056128766003889 
0.0018709588713164084 
-0.0018709588615185232 
-0.005612876598116307 
-0.007483835477746799 
0.0071096437921949005 
0.005332232806136561 
0.0017774108363421317 
-0.0017774110098509746 
-0.005332232732442604 
-0.007109643592577219 
0.006735452383829468 
0.005051589081929932 
0.0016838626048067884 
-0.0016838633547464508 
-0.0050515887967245016 
-0.006735451454372921 
0.00636126150190965 
0.004770945493284962 
0.0015903139744924617 
-0.0015903160984291201 
-0.004770944725450088 
-0.006361258789717285 
0.005987071431600461 
0.004490302088323083 
0.001496764754703348 
-0.0014967694316073072 
-0.004490300470506183 
-0.00598706531343676 
0.005612881906705727 
0.00420965872179339 
0.0014032152237622895 
-0.001403223075913836 
-0.004209656177117713 
-0.0056128712917642275 
0.0052386903784471415 
0.003929014559112796 
0.0013096674902747748 
-0.0013096749221488172 
-0.003929012679500826 
-0.005238679273932918 
0.004864487953893086 
0.003648366988694844 
0.0012161286101707105 
-0.0012161179110074995 
-0.0036483725871195704 
-0.004864498155379322 
0.004490251991754438 
0.0033677098055773414 
0.0011226161014510167 
-0.0011225345125840773 
-0.0033677420973302436 
-0.004490350585990543 
0.00411593727523874 
0.0030870315322773273 
0.0010291640402069742 
-0.0010288906368462025 
-0.0030871326778281003 
-0.004116281790865763 
0.0037414787699735306 
0.002806318066953444 
0.0009358191363145 
-0.0009351397243829995 
-0.0028065585213029945 
-0.003742356685144347 
0.0033668480478954146 
0.002525572310365959 
0.0008425935809732935 
-0.0008412710011462029 
-0.0025260176049229735 
-0.0033686026184434562 
0.0029922672977785152 
0.0022448791864378963 
0.0007492957575627051 
-0.0007474830192168542 
-0.002245429406454047 
-0.002994792334446252 
0.002618774868584266 
0.001964568251057785 
0.0006550904908986612 
-0.0006546322068534081 
-0.0019644779251923815 
-0.0026198720884119285 
0.002249446854288766 
0.0016855012721017412 
0.000557579948844001 
-0.0005651142003057538 
-0.0016823033759896307 
-0.002240774143594468 
0.0018912975058162427 
0.0014094012347314812 
0.0004512733641404284 
-0.00048400400078082106 
-0.001396922117049683 
-0.0018507944679035865 
0.0015579248434634888 
0.0011379225515585863 
0.0003256532903239753 
-0.00041841271946135524 
-0.0011046157120565088 
-0.0014390196641960403 
0.0012647618344318401 
0.0008693132903150826 
0.00016609009199207049 
-0.00036989426163371736 
-0.0007984710092086994 
-0.0009988380573641479 
0.0010244849614063302 
0.0005776962086570774 
-3.2986528511839096e-05 
-0.0003002169853833283 
-0.00047925595219186614 
-0.0005549584465485789 
0.0006226182766002672 
0.00026091950486204364 
-0.00011975919881938399 
-0.00016174392047147763 
-0.00019154993948118713 
-0.0001983511687820072 
0.00032614851512016853 
0.00010159993309091875 
-9.768796594617259e-05 
-7.240559940568812e-05 
-6.538629161454925e-05 
-5.83886673717364e-05 
</DataArray>
<DataArray type="Float64" Name="Nodal_sigma_yy" NumberOfComponents="1" format="ascii" >
0.004568632881800585 
0.0035222555121874966 
0.0012379390712869162 
-0.0012379390712880388 
-0.003522255512188551 
-0.0045686328818016 
0.0021586260723819592 
0.0018186991375127794 
0.000739386101321594 
-0.0007393861013223824 
-0.0018186991375134193 
-0.0021586260723824853 
-0.0001264795841378714 
2.3692853718441714e-05 
8.693264578730087e-05 
-8.693264578757279e-05 
-2.369285371857659e-05 
0.00012647958413783932 
-1.588568185578341e-05 
-5.245003066645679e-05 
-4.450718973858011e-05 
4.450718973853878e-05 
5.2450030666439224e-05 
1.5885681855770835e-05 
-1.7263164606227087e-05 
-2.273421010370001e-05 
-1.4102627800584354e-05 
1.4102627800598015e-05 
2.273421010370966e-05 
1.726316460622752e-05 
-2.607043914950192e-06 
-4.797074419595881e-06 
-3.493552462112843e-06 
3.493552462130407e-06 
4.797074419592791e-06 
2.607043914940651e-06 
-4.3124403335381006e-07 
-6.445550665108777e-07 
-4.2893304982417424e-07 
4.289330498330918e-07 
6.445550665049688e-07 
4.3124403336335104e-07 
2.4679678974071084e-08 
1.4245022848043305e-08 
1.9051833730017497e-09 
-1.9051833629999846e-09 
-1.4245022853789577e-08 
-2.467967895759121e-08 
2.15844583148668e-08 
3.3432704143435306e-08 
2.264047498833294e-08 
-2.2640474989200302e-08 
-3.343270414159216e-08 
-2.158445830012165e-08 
7.1619602128210336e-09 
1.0885435495371944e-08 
7.3044553865355246e-09 
-7.30445536683015e-09 
-1.0885435452166487e-08 
-7.161960175524479e-09 
1.290681311827413e-09 
2.1109340469192828e-09 
1.4655934098300365e-09 
-1.4655933274577764e-09 
-2.110934006099071e-09 
-1.2906813196336686e-09 
1.238619966141552e-10 
2.133982439540827e-10 
1.5146726437659762e-10 
-1.5146718653088163e-10 
-2.1339822286635043e-10 
-1.2386203521175254e-10 
-2.0793263595317302e-11 
-2.649793963893296e-11 
-1.6101342034300324e-11 
1.6101264920420806e-11 
2.6497962786649343e-11 
2.0793327346405044e-11 
-1.2461786160281041e-11 
-1.888199123965817e-11 
-1.2651173335385783e-11 
1.2650956847316992e-11 
1.8881985168126003e-11 
1.2461906289881752e-11 
-3.3178789576870926e-12 
-5.191575901813961e-12 
-3.5326989678832396e-12 
3.532486437152378e-12 
5.1915180596280586e-12 
3.3179381551257103e-12 
-5.386685021646631e-13 
-8.820453048508092e-13 
-6.126875536863891e-13 
6.127330359675248e-13 
8.821038517681234e-13 
5.387886317653745e-13 
-2.918672248330978e-14 
-5.752380993415129e-14 
-4.2478688752276006e-14 
4.394366272773842e-14 
5.827022891979894e-14 
2.9556652264561833e-14 
1.5940807701619875e-14 
2.2986983410494544e-14 
1.685270304384312e-14 
-1.0720672396699604e-14 
-1.993609270722896e-14 
-1.475859365274168e-14 
8.303904439066478e-15 
1.4259210132094857e-14 
1.5080181569628037e-14 
1.794964459185533e-15 
-5.6868030250123436e-15 
-5.0176876542629145e-15 
5.327552635159272e-15 
1.171740655891984e-14 
1.9524380484754744e-14 
1.6374502123141232e-14 
6.947513311178488e-15 
2.0875228629035902e-15 
6.774745694992923e-15 
1.5715347859851514e-14 
2.868888395075875e-14 
2.8218502838225912e-14 
1.493434282490158e-14 
6.153497850158729e-15 
6.847170400114955e-15 
1.3405671971805644e-14 
2.1586153546061804e-14 
2.1473559150449184e-14 
1.3198101465883294e-14 
6.657218179495494e-15 
-6.549231643115938e-15 
-2.564203190058567e-14 
-5.992698470704688e-14 
-5.997859273045719e-14 
-2.5689736796175033e-14 
-6.5414253874740425e-15 
-6.117675810379808e-14 
-1.721123243925149e-13 
-3.5278839582725957e-13 
-3.5276112814262156e-13 
-1.7206554106877214e-13 
-6.11377268255886e-14 
-2.122542593074872e-13 
-5.607636750781797e-13 
-1.111461617187004e-12 
-1.1114117980971783e-12 
-5.607593924795984e-13 
-2.1234533228997599e-13 
-5.384718278905742e-13 
-1.368922011336926e-12 
-2.652885283140321e-12 
-2.6527238454368378e-12 
-1.3687721745966885e-12 
-5.384950298170654e-13 
-1.0708092398892255e-12 
-2.6134819135215093e-12 
-4.937094508987005e-12 
-4.936903635194539e-12 
-2.6133268184007352e-12 
-1.0708807972326095e-12 
-1.5287920668988209e-12 
-3.4460382681081314e-12 
-6.1630114802768005e-12 
-6.1628725397683964e-12 
-3.4460022183858963e-12 
-1.5289978484711586e-12 
-6.179111042281527e-13 
-3.580382789292874e-13 
7.214922764591479e-13 
7.215396289890312e-13 
-3.579504856583704e-13 
-6.178302227460852e-13 
5.424291875041898e-12 
1.6396120924725213e-11 
3.481229576661341e-11 
3.481253998315276e-11 
1.639649383606244e-11 
5.424549264637646e-12 
2.5057809126260988e-11 
6.792728432145588e-11 
1.3655360213893006e-10 
1.3655429543200925e-10 
6.792803898037804e-11 
2.5057931857946913e-11 
7.289937013418846e-11 
1.8885823623287362e-10 
3.700757983209329e-10 
3.7007719032810214e-10 
1.8886002657592105e-10 
7.29001668059448e-11 
1.6405443475052406e-10 
4.0942639518504534e-10 
7.84445681236692e-10 
7.844503269616859e-10 
4.0943331041623683e-10 
1.6405897376291917e-10 
2.837319608862271e-10 
6.722557841887071e-10 
1.2454112101410036e-09 
1.2454245349585984e-09 
6.722761537725479e-10 
2.837460504187192e-10 
2.9414722372243796e-10 
5.89616774214442e-10 
9.579637052148024e-10 
9.579643165964075e-10 
5.896214113471337e-10 
2.9415527522461127e-10 
-2.8335866259724535e-10 
-1.1038637833394715e-09 
-2.5866063244056733e-09 
-2.5868913339975553e-09 
-1.1042684042292163e-09 
-2.83597885192971e-10 
-2.6640487277122815e-09 
-7.499992082623304e-09 
-1.5382266160558202e-08 
-1.5384359515995113e-08 
-7.503047520524692e-09 
-2.6659728926412343e-09 
-9.26823242035791e-09 
-2.450769533599256e-08 
-4.859690055764078e-08 
-4.860606447840233e-08 
-2.4521262112817783e-08 
-9.27703813248526e-09 
-2.3556687463849833e-08 
-5.993959469128424e-08 
-1.1621015234481634e-07 
-1.1623187840782229e-07 
-5.997303375812092e-08 
-2.358011347151131e-08 
-4.700047341826916e-08 
-1.1473302106752988e-07 
-2.1677504693580252e-07 
-2.1673799337170097e-07 
-1.1468502386940852e-07 
-4.697858615022952e-08 
-6.759538178637784e-08 
-1.524156001203662e-07 
-2.722188371798295e-07 
-2.7147523543309633e-07 
-1.5135443859042182e-07 
-6.696026221995541e-08 
-3.042304665823578e-08 
-2.1604316595603837e-08 
2.4285228999837812e-08 
2.8850605108921788e-08 
-1.4864235174828896e-08 
-2.6073636034853846e-08 
2.28101884824374e-07 
6.99677946150215e-07 
1.5055523536579327e-06 
1.5232640098448312e-06 
7.257499457460242e-07 
2.448225716421954e-07 
1.0700696743876667e-06 
2.9435170996376067e-06 
5.950502207833017e-06 
5.978700078872416e-06 
2.9908448993923894e-06 
1.1083295318184351e-06 
3.2942702929532612e-06 
8.38102449339175e-06 
1.6274607165568447e-05 
1.612008136007381e-05 
8.152350016529174e-06 
3.1459729502173795e-06 
7.79055866371016e-06 
1.92706795184808e-05 
3.5308890226615204e-05 
3.34277165388026e-05 
1.668483230322366e-05 
6.381211608821088e-06 
1.8715841626192742e-05 
3.702036718443761e-05 
5.928872440306167e-05 
4.989612862068647e-05 
2.2346103711819866e-05 
8.152506245707666e-06 
2.2382228064825072e-05 
5.0977751908635476e-05 
5.866391360432529e-05 
2.290118018408243e-05 
4.310513770839428e-06 
5.732186297186816e-07 
8.298136817543454e-05 
-2.8150651717278566e-06 
-0.000122570753853495 
-0.000131181384014688 
-6.568479045513957e-05 
-2.5536822069002854e-05 
-0.000990641727542547 
-0.0009410319727427803 
-0.0007379396312972252 
-0.0004238118002378153 
-0.00015583078818884774 
-4.8495020553501544e-05 
-0.002129223467068237 
-0.0018221366265266852 
-0.0011847090996734537 
-0.0005953970294280262 
-0.00019464109115814224 
-5.285653682200599e-05 
</DataArray>
<DataArray type="Float64" Name="Nodal_sigma_xy" NumberOfComponents="1" format="ascii" >
-0.001550154587492609 
-0.0006907153922716884 
0.00046579268601408996 
0.00046579268601392847 
-0.0006907153922721725 
-0.0015501545874932541 
-0.0007868661097003538 
-0.0005157894626210261 
-9.077748253289437e-05 
-9.077748253301016e-05 
-0.0005157894626213157 
-0.0007868661097007013 
-6.448421712822213e-05 
-0.000325892867669021 
-0.0006418650237712212 
-0.000641865023771251 
-0.000325892867669052 
-6.44842171282246e-05 
-0.00014403430279418252 
-0.00032637406256968467 
-0.0006016087860376438 
-0.0006016087860376271 
-0.000326374062569646 
-0.00014403430279413874 
-0.00019535101918717832 
-0.0003463574435588905 
-0.0005559670468519376 
-0.0005559670468519187 
-0.00034635744355885316 
-0.00019535101918714134 
-0.00021031494383809895 
-0.00035195022391538733 
-0.0005428923041699673 
-0.0005428923041699556 
-0.00035195022391536576 
-0.0002103149438380789 
-0.00021282167126230337 
-0.00035313254326746187 
-0.0005404566211057904 
-0.0005404566211057841 
-0.0003531325432674486 
-0.0002128216712622892 
-0.00021300006290987393 
-0.0003532499820118256 
-0.000540249986537631 
-0.0005402499865376287 
-0.00035324998201181776 
-0.00021300006290986284 
-0.00021294014193854228 
-0.000353238923077362 
-0.0005402910059577308 
-0.0005402910059577233 
-0.0003532389230773526 
-0.00021294014193853832 
-0.0002129119445422362 
-0.0003532292193169853 
-0.0005403148084161966 
-0.0005403148084161986 
-0.00035322921931699115 
-0.000212911944542244 
-0.00021290508589061439 
-0.0003532265192073762 
-0.0005403209378516191 
-0.0005403209378516295 
-0.0003532265192073899 
-0.0002129050858906209 
-0.00021290407985811814 
-0.0003532260448899557 
-0.0005403219151853451 
-0.0005403219151853276 
-0.0003532260448899237 
-0.00021290407985808947 
-0.00021290405645597329 
-0.00035322601123072414 
-0.0005403219605457196 
-0.0005403219605456628 
-0.00035322601123062824 
-0.000212904056455895 
-0.00021290409560992512 
-0.00035322602172711847 
-0.000540321930472318 
-0.0005403219304722306 
-0.0003532260217269665 