<?xml version="1.0"?>
<VTKFile type="UnstructuredGrid" version="0.1" byte_order="LittleEndian" compressor="vtkZLibDataCompressor">
<UnstructuredGrid>
<Piece NumberOfPoints="306" NumberOfCells="250">
<PointData>
<DataArray type="Float64" Name="displacement" NumberOfComponents="3" format="ascii" >
0.0 0.0  0.
0.0 0.0  0.
0.0 0.0  0.
0.0 0.0  0.
0.0 0.0  0.
0.0 0.0  0.
0.10709269397477214 -0.0715088767459439  0.
0.05569131181959296 -0.025250028639207046  0.
0.018332544730850216 -0.007171879975228861  0.
-0.018332544730855084 -0.0071718799752296955  0.
-0.05569131181959796 -0.02525002863920977  0.
-0.10709269397477864 -0.07150887674594952  0.
0.21539213150250963 -0.14123874393062744  0.
0.12470616416896173 -0.09829739245286959  0.
0.04031490455112914 -0.07513199530789205  0.
-0.040314904551139855 -0.07513199530789343  0.
-0.12470616416897291 -0.09829739245287386  0.
-0.21539213150252182 -0.1412387439306345  0.
0.3228880724352325 -0.25393320200615915  0.
0.19099177051698002 -0.21126893850583642  0.
0.06307158960947973 -0.18958332218606078  0.
-0.06307158960949676 -0.18958332218606236  0.
-0.19099177051699737 -0.21126893850584108  0.
-0.3228880724352503 -0.2539332020061668  0.
0.4292494602813061 -0.40902892486025905  0.
0.2552137957422062 -0.36745033463187515  0.
0.08464157219620894 -0.3465528309912751  0.
-0.08464157219623232 -0.34655283099127665  0.
-0.2552137957422298 -0.3674503346318798  0.
-0.4292494602813298 -0.4090289248602667  0.
0.5335251439369877 -0.6064744641161038  0.
0.3178339266883288 -0.5658184662838023  0.
0.10555885082652681 -0.5454792318206092  0.
-0.10555885082655646 -0.5454792318206108  0.
-0.3178339266883585 -0.5658184662838068  0.
-0.5335251439370173 -0.6064744641161115  0.
0.6355407473577573 -0.8452238322403703  0.
0.3790427167452115 -0.8054791874140977  0.
0.12596692164184284 -0.7856067722755926  0.
-0.1259669216418787 -0.7856067722755942  0.
-0.37904271674524737 -0.8054791874141023  0.
-0.6355407473577932 -0.845223832240378  0.
0.7352629720644912 -1.124332564486121  0.
0.43887331494375165 -1.0854916257105096  0.
0.14591053450039282 -1.0660718275674725  0.
-0.1459105345004348 -1.0660718275674739  0.
-0.43887331494379367 -1.0854916257105143  0.
-0.7352629720645333 -1.1243325644861286  0.
0.8326912634698457 -1.4428723514984374  0.
0.49732938140876914 -1.4049346587525824  0.
0.16539563376260508 -1.3859660187864555  0.
-0.1653956337626532 -1.385966018786457  0.
-0.4973293814088173 -1.4049346587525868  0.
-0.8326912634698939 -1.442872351498445  0.
0.9278266228538172 -1.7999247735565274  0.
0.5544104162090011 -1.762890301634021  0.
0.18442256200144713 -1.7443731080378522  0.
-0.18442256200150137 -1.7443731080378537  0.
-0.5544104162090553 -1.7628903016340254  0.
-0.9278266228538715 -1.7999247735565351  0.
1.0206694681071518 -2.1945727414551444  0.
0.6101161041791603 -2.158441535069154  0.
0.2029911074105385 -2.1403759361339465  0.
-0.2029911074105989 -2.1403759361339483  0.
-0.6101161041792207 -2.1584415350691586  0.
-1.0206694681072122 -2.194572741455152  0.
1.1112198873687336 -2.6258993369793195  0.
0.6644463576559073 -2.59067140805114  0.
0.22110119007520088 -2.573057443127872  0.
-0.2211011900752674 -2.5730574431278734  0.
-0.6644463576559738 -2.590671408051144  0.
-1.1112198873687997 -2.6258993369793266  0.
1.1994778921203673 -3.0929876127884546  0.
0.7174011620519323 -3.058662963911183  0.
0.23875279170655983 -3.041500639107867  0.
-0.23875279170663213 -3.0415006391078685  0.
-0.717401162052005 -3.0586629639111864  0.
-1.1994778921204394 -3.0929876127884612  0.
1.2854434820117726 -3.5949206072211215  0.
0.7689805164223574 -3.5614992386322153  0.
0.2559459099745292 -3.544788554236634  0.
-0.25594590997460664 -3.5447885542366344  0.
-0.7689805164224361 -3.561499238632218  0.
-1.285443482011852 -3.5949206072211273  0.
1.3691166564085702 -4.130781354611295  0.
0.8191844211363581 -4.098263266282881  0.
0.27268054492020893 -4.082004222101119  0.
-0.27268054492029015 -4.082004222101119  0.
-0.819184421136443 -4.098263266282883  0.
-1.3691166564086579 -4.1307813546113  0.
1.4504974151087393 -4.699652888670033  0.
0.8680128763619472 -4.668038080579837  0.
0.2889566966693257 -4.6522306765335175  0.
-0.288956696669409 -4.6522306765335175  0.
-0.8680128763620382 -4.668038080579839  0.
-1.4504974151088386 -4.699652888670038  0.
1.529585758073613 -5.300618243073689  0.
0.9154658821391968 -5.269906715215686  0.
0.30477436526228785 -5.254550951287086  0.
-0.3047743652623725 -5.254550951287088  0.
-0.9154658821392936 -5.2699067152156935  0.
-1.52958575807373 -5.300618243073703  0.
1.6063816852994184 -5.9327604515172485  0.
0.9615434384738586 -5.902952203890397  0.
0.3201335507070198 -5.88804808007717  0.
-0.32013355070711336 -5.888048080077185  0.
-0.961543438473961 -5.90295220389043  0.
-1.6063816852995583 -5.932760451517293  0.
1.680885196786693 -6.595162547703449  0.
1.0062455453660226 -6.566257580307677  0.
0.3350342530043107 -6.551805096609866  0.
-0.3350342530044455 -6.551805096609914  0.
-1.0062455453661294 -6.566257580307786  0.
-1.6808851967868454 -6.59516254770357  0.
1.7530962925358198 -7.286907565336819  0.
1.0495722028154508 -7.258905878172146  0.
0.34947647215403493 -7.244905034589894  0.
-0.34947647215430283 -7.2449050345900154  0.
-1.0495722028155607 -7.258905878172422  0.
-1.7530962925359177 -7.286907565337095  0.
1.8230149725469698 -8.007078538122153  0.
1.091523410822058 -7.979980131188568  0.
0.3634602081560669 -7.966430927721943  0.
-0.3634602081566705 -7.9664309277221905  0.
-1.091523410822169 -7.979980131189122  0.
-1.8230149725467961 -8.00707853812265  0.
1.8906412368203147 -8.754758499764336  0.
1.1320991693858253 -8.728563373061789  0.
0.3769854610103176 -8.715465809710794  0.
-0.3769854610115985 -8.715465809711159  0.
-1.1320991693859386 -8.7285633730626  0.
-1.890641236819342 -8.754758499764929  0.
1.9559750853560938 -9.529030483968508  0.
1.171299478506745 -9.503738637496902  0.
0.39005223071679157 -9.491092714261354  0.
-0.390052230719076 -9.491092714261548  0.
-1.1712994785068727 -9.503738637497317  0.
-1.9559750853533182 -9.529030483968345  0.
2.01901651815446 -10.328977524440418  0.
1.209124338184801 -10.30458895819962  0.
0.40266051727587837 -10.29239467507881  0.
-0.40266051727871316 -10.292394675077707  0.
-1.2091243381849885 -10.304588958197098  0.
-2.0190165181485704 -10.328977524436695  0.
2.079765535214804 -11.153682654886866  0.
1.2455737484199563 -11.130197368876873  0.
0.41481032068910884 -11.118454725868903  0.
-0.4148103206889791 -11.118454725863455  0.
-1.2455737484203229 -11.130197368864563  0.
-2.0797655352057087 -11.153682654872728  0.
2.13822213653387 -12.002228909015766  0.
1.2806477092121482 -11.979646903237237  0.
0.426501640960636 -11.968355900338105  0.
-0.42650164094572135 -11.96835590032186  0.
-1.2806477092129387 -11.979646903200688  0.
-2.1382221365279888 -12.002228908978077  0.
2.1943863221016953 -12.87369932053404  0.
1.3143462205613154 -12.852020594989636  0.
0.4377344780992687 -12.841181232193064  0.
-0.4377344780401314 -12.841181232155815  0.
-1.3143462205628982 -12.852020594906083  0.
-2.194386322125373 -12.873699320455358  0.
2.2482580918949844 -13.767176923138884  0.
1.3466692824675324 -13.746401477835931  0.
0.4485088321190065 -13.736013755137334  0.
-0.4485088319582088 -13.736013755071319  0.
-1.346669282470127 -13.746401477688442  0.
-2.2482580920211586 -13.767176923016931  0.
2.2998374458714395 -14.681744750493374  0.
1.3776168949314231 -14.661872585447625  0.
0.4588247030306694 -14.651936502861014  0.
-0.4588247026891339 -14.65193650278781  0.
-1.3776168949340004 -14.661872585285801  0.
-2.2998374462576434 -14.681744750409257  0.
2.3491243839811946 -15.616485836173524  0.
1.407189057955113 -15.597516951410515  0.
0.46868209080538165 -15.588032509016093  0.
-0.4686820902617827 -15.58803250906285  0.
-1.4071890579523938 -15.597516951521913  0.
-2.349124384884695 -15.61648583646587  0.
2.3961189062422656 -16.57048321358103  0.
1.4353857715439342 -16.552417609122145  0.
0.47808099527077064 -16.543384807170593  0.
-0.4780809948485282 -16.54338480773797  0.
-1.435385771519975 -16.55241761040878  0.
-2.3961189078842944 -16.57048321519462  0.
2.4408210129854067 -17.54281991586592  0.
1.4622070357083787 -17.52565759166509  0.
0.48702141588168135 -17.517076430751416  0.
-0.487021416994526 -17.517076432795808  0.
-1.4622070356262533 -17.525657596273376  0.
-2.4408210149256924 -17.54281992085504  0.
2.4832307054502145 -18.53257897606629  0.
1.4876528504631241 -18.516319931827248  0.
0.4955033513335597 -18.50819041305151  0.
-0.49550335800434314 -18.50819041835293  0.
-1.4876528502565605 -18.516319943737354  0.
-2.483230704769283 -18.532578987818574  0.
2.5233479869198585 -19.53884342807219  0.
1.5117232158130154 -19.523487662839432  0.
0.5035267991913708 -19.515809787554534  0.
-0.503526820313064 -19.515809798335187  0.
-1.5117232154061058 -19.52348768697945  0.
-2.523347974131844 -19.53884344960475  0.
2.561172864207906 -20.560696309786138  0.
1.5344181317016072 -20.546243821242857  0.
0.5110917563956313 -20.53901758920611  0.
-0.511091806980295 -20.5390176052064  0.
-1.5344181311315308 -20.54624385686797  0.
-2.5611728161995533 -20.56069633572055  0.
2.5967053477758797 -21.597220670869543  0.
1.5557375978762442 -21.5836714546261  0.
0.5181982232224024 -21.57689685785626  0.
-0.5181983177297927 -21.576896866526518  0.
-1.5557375976857528 -21.583671473223305  0.
-2.5967052205102488 -21.597220663913046  0.
2.6299454445113777 -22.64749958759885  0.
1.5756816136097263 -22.634853637959182  0.
0.52484621662101 -22.628530645552864  0.
-0.524846335608238 -22.628530597662873  0.
-1.5756816157936884 -22.634853528481866  0.
-2.6299451801771063 -22.647499425309146  0.
2.6608931280189045 -23.710616182628346  0.
1.59425017727399 -23.698873499368318  0.
0.5310358034604005 -23.69300202811108  0.
-0.5310357937216088 -23.69300179024126  0.
-1.5942501870611185 -23.698872961916482  0.
-2.6608927216148897 -23.710615564641195  0.
2.6895482563058883 -24.78565362776138  0.
1.6114432860532182 -24.774814239439564  0.
0.5367671654620125 -24.769394113995425  0.
-0.5367665102507516 -24.769393403315078  0.
-1.6114433141907565 -24.77481264033982  0.
-2.6895479869405734 -24.78565197748295  0.
2.7159103938144358 -25.871695052805794  0.
1.627260937033963 -25.8617590757174  0.
0.5420406888155354 -25.85679002003792  0.
-0.5420380988356842 -25.85678838757449  0.
-1.6272609997477787 -25.861755413770958  0.
-2.7159114122013133 -25.871691601678958  0.
2.7399785203572073 -26.96782316492234  0.
1.641703133360385 -26.95879091887197  0.
0.5468569896048343 -26.95427272758709  0.
-0.5468499442164609 -26.954269827600644  0.
-1.6417032404904597 -26.95878444024918  0.
-2.7399840185095874 -26.967817800028712  0.
2.7617507759768607 -28.073119184345774  0.
1.6547699056614091 -28.064991357674383  0.
0.5512165540837658 -28.060924623830513  0.
-0.5512015699939734 -28.060921390262024  0.
-1.6547700124477824 -28.06498420496506  0.
-2.7617676618733675 -28.073115432476055  0.
2.781224938302955 -29.186660539285228  0.
1.6664613716741001 -29.179438230877995  0.
0.55511816161942 -29.175826408351416  0.
-0.5550942493857008 -29.175828378960684  0.
-1.6664612492392599 -29.17944295367204  0.
-2.7812645174515005 -29.186673180880927  0.
2.79840160512256 -30.30751696116831  0.
1.6767778805686846 -30.301201141835236  0.
0.5585543843164937 -30.29805500790714  0.
-0.5585355922106822 -30.298079743429366  0.
-1.6767768281230109 -30.30125715394987  0.
-2.7984737180389025 -30.307587387394722  0.
2.813294804775867 -31.43474692930556  0.
1.6857201591011588 -31.429335487862765  0.
0.5615014540823957 -31.42668142112041  0.
-0.5615494854537708 -31.426770600738536  0.
-1.6857166092497278 -31.42953699430437  0.
-2.813380355644991 -31.434964989030888  0.
2.8259578259330005 -32.56740013877397  0.
1.693288456964017 -32.56288321359065  0.
0.5639009677998893 -32.560771988599846  0.
-0.5641918066102681 -32.561004726612474  0.
-1.6932795109816898 -32.56340399817781  0.
-2.8259299965317024 -32.56791591653857  0.
2.8365435486485966 -33.7045596185784  0.
1.6994735657156164 -33.7008956476013  0.
0.5656341166980259 -33.69941920673797  0.
-0.5665563818934118 -33.699887103074516  0.
-1.6994580441409974 -33.7019571533407  0.
-2.8359838813644496 -33.70550132166448  0.
2.8453951699536697 -34.845421698962966  0.
1.7042122667360056 -34.84259046449936  0.
0.566517204282863 -34.841807077035966  0.
-0.5687247050100419 -34.84252177047157  0.
-1.7041988180123149 -34.844135740695116  0.
-2.8433002377717154 -34.84659019512328  0.
2.853350626619363 -35.99000156692724  0.
1.7072450133816697 -35.987554505186075  0.
0.5663840646533882 -35.98758214817234  0.
-0.5704484927412801 -35.98779309053808  0.
-1.7073689909997007 -35.988428042907415  0.
-2.847659890434366 -35.98963078373426  0.
2.861175149147218 -37.13878457426933  0.
1.7077152441280294 -37.1382444936629  0.
0.5664361777453495 -37.135971421401734  0.
-0.5709919409614166 -37.1336672364853  0.
-1.7088210248062092 -37.13260522643036  0.
-2.849310968909111 -37.13260322914948  0.
2.8709509604088552 -38.31573913505714  0.
1.711416051203111 -38.29383374190087  0.
0.5688447245802684 -38.281849728437045  0.
-0.5699856220037092 -38.27612898040825  0.
-1.7089126287716596 -38.274242774950864  0.
-2.8495365104259807 -38.274008561819365  0.
</DataArray>
<DataArray type="Float64" Name="Nodal_sigma_xx" NumberOfComponents="1" format="ascii" >
0.05185750995521972 
0.03798929092124213 
0.012060535943631451 
-0.012060535943634758 
-0.03798929092124566 
-0.05185750995522345 
0.050631460736891676 
0.037891465229457647 
0.012575734861010962 
-0.01257573486101439 
-0.037891465229461144 
-0.05063146073689522 
0.04907902810982637 
0.03728487877677397 
0.012745364721859895 
-0.012745364721863455 
-0.037284878776777414 
-0.04907902810982971 
0.048284644173658686 
0.036344571706188135 
0.012202249619357898 
-0.01220224961936145 
-0.036344571706191584 
-0.048284644173662045 
0.04731687493102616 
0.035515767807321116 
0.011857330341807158 
-0.011857330341810666 
-0.03551576780732455 
-0.047316874931029526 
0.046304432020090706 
0.0347310795186942 
0.011578863508647974 
-0.011578863508651463 
-0.03473107951869764 
-0.0463044320200941 
0.04527733312433919 
0.03395773769236008 
0.01131907113018961 
-0.01131907113019308 
-0.03395773769236352 
-0.045277333124342636 
0.04424831936338378 
0.03318600835022371 
0.011061848668530942 
-0.011061848668534373 
-0.033186008350227114 
-0.044248319363387224 
0.04321918983135848 
0.03241432825018857 
0.010804733334508463 
-0.010804733334511915 
-0.03241432825019197 
-0.04321918983136185 
0.042190129693939094 
0.03164258599211628 
0.010547521145145882 
-0.010547521145149343 
-0.031642585992119714 
-0.04219012969394245 
0.04116109561558523 
0.030870820912916312 
0.010290273105122871 
-0.010290273105126289 
-0.030870820912919737 
-0.04116109561558855 
0.04013206754039601 
0.030099050904488982 
0.010033017134290168 
-0.01003301713429356 
-0.030099050904492428 
-0.04013206754039935 
0.03910304023239722 
0.029327280297073075 
0.00977576018087366 
-0.009775760180877016 
-0.029327280297076617 
-0.03910304023240082 
0.0380740129127341 
0.02855550971454246 
0.009518503258174658 
-0.009518503258177744 
-0.028555509714546 
-0.038074012912738014 
0.037044985552199206 
0.02778373916863176 
0.009261246392531624 
-0.009261246392534013 
-0.027783739168635427 
-0.03704498555220389 
0.036015958178470225 
0.02701196863397528 
0.00900398954474 
-0.009003989544741318 
-0.02701196863397927 
-0.03601595817847625 
0.03498693080214176 
0.02624019810143974 
0.008746732700368841 
-0.008746732700369571 
-0.026240198101443953 
-0.034986930802148805 
0.03395790342554973 
0.02546842756909996 
0.008489475856324083 
-0.008489475856327014 
-0.025468427569103218 
-0.033957903425554437 
0.032928876048994526 
0.02469665703672962 
0.008232219012226765 
-0.008232219012241311 
-0.024696657036728277 
-0.0329288760489851 
0.0318998486724782 
0.023924886504343587 
0.007974962168085641 
-0.00797496216813631 
-0.023924886504328828 
-0.03189984867242273 
0.030870821296001275 
0.023153115971960757 
0.007717705323911077 
-0.007717705324047896 
-0.023153115971915727 
-0.03087082129583374 
0.029841793919576334 
0.022381345439588658 
0.007460448479698199 
-0.007460448479995035 
-0.022381345439490413 
-0.029841793919195343 
0.028812766543185167 
0.021609574907218747 
0.0072031916354662355 
-0.007203191635961027 
-0.021609574907062803 
-0.028812766542523405 
0.027783739166666405 
0.020837804374798322 
0.006945934791348361 
-0.006945934791812948 
-0.02083780437468558 
-0.027783739165978785 
0.026754711789460595 
0.02006603384216358 
0.006688677947788587 
-0.006688677947107043 
-0.020066033842522833 
-0.026754711790120976 
0.025725684410146554 
0.019294263308925672 
0.006431421105887282 
-0.0064314211007429085 
-0.019294263310963882 
-0.025725684416372165 
0.024696657025889555 
0.01852249277436496 
0.006174164267779618 
-0.006174164250584604 
-0.01852249278072757 
-0.024696657047567058 
0.0236676296326298 
0.01775072223760042 
0.005916907436376725 
-0.00591690739372171 
-0.017750722252695035 
-0.023667629687764237 
0.022638602228681533 
0.01697895169880155 
0.00565965061235315 
-0.005659650529479738 
-0.016978951726697177 
-0.022638602338650136 
0.021609574828262007 
0.016207181163210245 
0.005402393783357512 
-0.005402393670209532 
-0.016207181197491472 
-0.021609574986007338 
0.02058054749739551 
0.015435410651079617 
0.005145136896125059 
-0.00514513686917677 
-0.015435410644825662 
-0.020580547563811388 
0.019551520428548977 
0.014663640216885973 
0.004887879799946134 
-0.004887880277091165 
-0.014663640014223716 
-0.019551519879595802 
0.01852249405554446 
0.01389186997531774 
0.004630622163223946 
-0.004630624225553129 
-0.01389186919099911 
-0.01852249149953509 
0.017493469130265914 
0.013120100106544135 
0.004373363429858861 
-0.004373369270680773 
-0.013120097994994515 
-0.017493461671732116 
0.016464446436915376 
0.01234833074289903 
0.004116103075438501 
-0.004116115936921235 
-0.012348326293898584 
-0.016464429611960377 
0.01543542524345401 
0.011576561484942578 
0.003858841865351172 
-0.003858863458764074 
-0.011576554487080429 
-0.015435396052361515 
0.014406398540742393 
0.010804790037570695 
0.0036015855982606468 
-0.00360160603591078 
-0.010804784868634551 
-0.014406368003325246 
0.013377341873217928 
0.010033009218920915 
0.0033443536779743164 
-0.0033443242552722305 
-0.01003302461458622 
-0.013377369927303252 
0.012348192977335672 
0.009261201965347571 
0.0030871942789946127 
-0.003086969909608125 
-0.009261290767664975 
-0.012348464111483945 
0.011318827506916897 
0.008489336713771726 
0.0028302011105729927 
-0.0028294492513292377 
-0.008489614864033653 
-0.011319774924889399 
0.010289066617436855 
0.007717374684129647 
0.0025735026248683394 
-0.0025716342420546417 
-0.007718035933589161 
-0.010291480884154797 
0.009258832131720874 
0.006945323853512997 
0.002317132347679927 
-0.0023134952531522436 
-0.006946548413542287 
-0.009263657200725351 
0.008228735068898114 
0.006173417762709521 
0.002060563333300146 
-0.0020555783028459625 
-0.0061749308677509045 
-0.00823567891973052 
0.007201630888611312 
0.005402562690412488 
0.0018014988499731985 
-0.00180023856884685 
-0.005402314294280816 
-0.0072046482431352 
0.006185978849296043 
0.0046351284982819275 
0.0015333448593226628 
-0.0015540640508407897 
-0.004626334283972583 
-0.006162128894886073 
0.00520106814099414 
0.003875853395512284 
0.001241001751387257 
-0.0013310110021469788 
-0.0038415358218864587 
-0.005089684786734875 
0.004284293319523445 
0.0031292870167860284 
0.0008955465483915312 
-0.0011506349785181252 
-0.0030376932081552397 
-0.003957304076539778 
0.0034780950446873637 
0.0023906115483663137 
0.0004567477529787322 
-0.0010172092194919418 
-0.002195795275323838 
-0.0027468046577515913 
0.002817333643866986 
0.0015886645738065943 
-9.071295340730221e-05 
-0.0008255967098040897 
-0.0013179538685273542 
-0.0015261357280073357 
0.0017122002606503233 
0.0007175286383705022 
-0.00032933779675233676 
-0.0004447957812960668 
-0.000526762333572964 
-0.0005454657141491492 
0.0008969084165801226 
0.00027939981600037594 
-0.0002686419063497789 
-0.00019911539836401697 
-0.0001798123019393677 
-0.00016056883527088857 
</DataArray>
<DataArray type="Float64" Name="Nodal_sigma_yy" NumberOfComponents="1" format="ascii" >
0.012563740424937409 
0.00968620265850499 
0.0034043324460359954 
-0.003404332446037125 
-0.009686202658506053 
-0.012563740424938434 
0.005936221699043675 
0.00500142262815467 
0.0020333117786326257 
-0.002033311778633421 
-0.00500142262815532 
-0.0059362216990442125 
-0.0003478188563787567 
6.515534772566609e-05 
0.00023906477591496605 
-0.00023906477591524036 
-6.515534772579793e-05 
0.0003478188563787281 
-4.368562510335093e-05 
-0.00014423758433259855 
-0.00012239477178093062 
0.00012239477178090016 
0.0001442375843325823 
4.3685625103349196e-05 
-4.7473702667064424e-05 
-6.251907778511475e-05 
-3.8782226451569365e-05 
3.8782226451594193e-05 
6.251907778513708e-05 
4.747370266711213e-05 
-7.16937076608061e-06 
-1.3191954653858423e-05 
-9.60726927080939e-06 
9.60726927081557e-06 
1.3191954653871867e-05 
7.16937076613005e-06 
-1.1859210916976073e-06 
-1.772526432861207e-06 
-1.179565887026281e-06 
1.1795658870230284e-06 
1.772526432888312e-06 
1.1859210917028115e-06 
6.786911720124689e-08 
3.9173812887982606e-08 
5.239254266271431e-09 
-5.239254243394765e-09 
-3.917381282509888e-08 
-6.78691172055837e-08 
5.9357260412395974e-08 
9.193993637983747e-08 
6.226130615916538e-08 
-6.226130619310091e-08 
-9.193993635099769e-08 
-5.935726034474176e-08 
1.969539067427084e-08 
2.9934947489351424e-08 
2.0087252168533246e-08 
-2.0087252206805583e-08 
-2.993494749867556e-08 
-1.9695390551105474e-08 
3.5493738859485036e-09 
5.805068531991933e-09 
4.030381665562355e-09 
-4.030381611785927e-09 
-5.805068567987445e-09 
-3.54937375931369e-09 
3.406207755088375e-10 
5.868451453949763e-10 
4.165348108477792e-10 
-4.1653484581329926e-10 
-5.868452212891284e-10 
-3.406206445372151e-10 
-5.7181554630192366e-11 
-7.286945482784524e-11 
-4.427876367971671e-11 
4.427838903365601e-11 
7.286926812823113e-11 
5.7181585855214934e-11 
-3.427020212748433e-11 
-5.192564195462268e-11 
-3.479078529715525e-11 
3.479009135355475e-11 
5.1925407333272555e-11 
3.4270143146886145e-11 
-9.12463507529715e-12 
-1.4276911900965028e-11 
-9.714839691163032e-12 
9.714224352220038e-12 
1.4276583387706765e-11 
9.124227415280295e-12 
-1.4818615085010478e-12 
-2.4255601867306797e-12 
-1.6844959400876686e-12 
1.6849671885619394e-12 
2.425463475896894e-12 
1.4812595594548839e-12 
-8.041744353759483e-14 
-1.5791816639076917e-13 
-1.1628610400993278e-13 
1.2078554302574762e-13 
1.5979904031959702e-13 
8.087367581177674e-14 
4.3668194060764165e-14 
6.337714641285741e-14 
4.6620476576442194e-14 
-2.9780106332311096e-14 
-5.498422897542987e-14 
-4.025339089830382e-14 
2.243344399133207e-14 
3.922329041422534e-14 
4.1482008800164394e-14 
4.5230746231750274e-15 
-1.5543447605403937e-14 
-1.3182163693947757e-14 
1.4363510381087963e-14 
3.213455977008062e-14 
5.3451763414730236e-14 
4.456206454186984e-14 
1.9301834436324938e-14 
6.477457459297398e-15 
1.8290924330699454e-14 
4.2849838260972106e-14 
7.838638050282343e-14 
7.705508865522848e-14 
4.1250097955469744e-14 
1.7754027414884632e-14 
1.841755914444576e-14 
3.652026597800173e-14 
5.89715722001255e-14 
5.877034427691219e-14 
3.647646421023332e-14 
1.873241145533555e-14 
-1.7773976734858365e-14 
-7.052409871366461e-14 
-1.650770449154737e-13 
-1.6509189848523675e-13 
-7.051206406955002e-14 
-1.7720200307103084e-14 
-1.6814154235600398e-13 
-4.736191907411813e-13 
-9.70398322244423e-13 
-9.701721576712424e-13 
-4.73116120933148e-13 
-1.6758773188629839e-13 
-5.840189443162558e-13 
-1.5423059964575492e-12 
-3.0564675681903075e-12 
-3.056572085279735e-12 
-1.5417634616904374e-12 
-5.827248406031771e-13 
-1.4803614063751969e-12 
-3.763821827991454e-12 
-7.294972975300726e-12 
-7.29552765313217e-12 
-3.763861726631401e-12 
-1.4793318479922046e-12 
-2.9440664316149334e-12 
-7.186622607777138e-12 
-1.3576975779533082e-11 
-1.357690964320056e-11 
-7.186666409544906e-12 
-2.9442863078155135e-12 
-4.203722873269422e-12 
-9.476500422052336e-12 
-1.6948839358897627e-11 
-1.6948676620151537e-11 
-9.476521780835134e-12 
-4.204091068327198e-12 
-1.6990666686089728e-12 
-9.844980733419995e-13 
1.9835380083224607e-12 
1.9835527534720065e-12 
-9.844818103094122e-13 
-1.6990636328428899e-12 
1.4917049800250437e-11 
4.508948661489931e-11 
9.573345244253025e-11 
9.573402717810188e-11 
4.509005159265139e-11 
1.4917030284611332e-11 
6.890962019751035e-11 
1.868007761278087e-10 
3.7552275072611115e-10 
3.755228278128856e-10 
1.8680123507058832e-10 
6.891038390952064e-11 
2.0047314589627385e-10 
5.193603022689633e-10 
1.0177088926905005e-09 
1.0177106279560776e-09 
5.193634795234298e-10 
2.0047602987405266e-10 
4.511496406491011e-10 
1.1259220615306847e-09 
2.1572259954652073e-09 
2.1572386047364733e-09 
1.1259405556345026e-09 
4.5116141031420476e-10 
7.802647243593253e-10 
1.8487034018433227e-09 
3.4248805743877396e-09 
3.424918002239356e-09 
1.8487594040297178e-09 
7.803018730288824e-10 
8.089065801734907e-10 
1.6214467002135385e-09 
2.634399749805146e-09 
2.6344020094451037e-09 
1.6214597366062504e-09 
8.089281336789989e-10 
-7.792366105673076e-10 
-3.035624699418253e-09 
-7.113166797549295e-09 
-7.113951065761733e-09 
-3.0367377291712523e-09 
-7.798941336484289e-10 
-7.326135348546814e-09 
-2.062497817510462e-08 
-4.230123102857584e-08 
-4.230698931467639e-08 
-2.0633381135615192e-08 
-7.331424697366862e-09 
-2.5487641496695426e-08 
-6.739616232546292e-08 
-1.3364147536899177e-07 
-1.33666677577747e-07 
-6.743347113834881e-08 
-2.5511854704956746e-08 
-6.478089359775521e-08 
-1.648338847856385e-07 
-3.195779183485744e-07 
-3.196376670153633e-07 
-1.6492584318025935e-07 
-6.484531305341913e-08 
-1.2925130336979493e-07 
-3.155158069082257e-07 
-5.961313789552874e-07 
-5.96029484497247e-07 
-3.1538381705287395e-07 
-1.2919111257517213e-07 
-1.8588729977183673e-07 
-4.1914289991443286e-07 
-7.486018020644604e-07 
-7.465568989056552e-07 
-4.162247081542555e-07 
-1.841407225690924e-07 
-8.366337743361159e-08 
-5.9411870091804694e-08 
6.678438064621883e-08 
7.933916476809922e-08 
-4.087664725970072e-08 
-7.170250001316443e-08 
6.272801851298776e-07 
1.924114352485994e-06 
4.140268973175937e-06 
4.188976028307256e-06 
1.995812351221417e-06 
6.73262072338086e-07 
2.9426916044857305e-06 
8.094672023819643e-06 
1.636388107165706e-05 
1.6441425216629784e-05 
8.224823473175372e-06 
3.047906213251737e-06 
9.059243303865291e-06 
2.3047817356385805e-05 
4.47551697057104e-05 
4.433022373944053e-05 
2.2418962545054283e-05 
8.651425613741986e-06 
2.1424036321329872e-05 
5.299436867464607e-05 
9.709944812347401e-05 
9.192622048170454e-05 
4.5883288834384505e-05 
1.754833192434569e-05 
5.146856446831816e-05 
0.00010180600975576021 
0.0001630439921088393 
0.00013721435370796302 
6.145178520766117e-05 
2.241939217387267e-05 
6.155112717814044e-05 
0.0001401888177478882 
0.0001613257624117391 
6.297824550714094e-05 
1.1853912869367767e-05 
1.576351230295973e-06 
0.0002281987624820191 
-7.741429223258789e-06 
-0.00033706957309777985 
-0.00036074880604143557 
-0.00018063317375205759 
-7.022626068826712e-05 
-0.0027242647507432346 
-0.0025878379250432646 
-0.0020293339860658014 
-0.0011654824506535603 
-0.0004285346675193856 
-0.0001333613065199591 
-0.005855364534438691 
-0.005010875722948181 
-0.0032579500240979883 
-0.0016373418309240286 
-0.0005352630006842008 
-0.00014535547625864993 
</DataArray>
<DataArray type="Float64" Name="Nodal_sigma_xy" NumberOfComponents="1" format="ascii" >
-0.004262925115598851 
-0.0018994673287436527 
0.0012809298865391725 
0.0012809298865390116 
-0.0018994673287441352 
-0.004262925115599493 
-0.002163881801672499 
-0.0014184210222047539 
-0.0002496380769630967 
-0.00024963807696321266 
-0.0014184210222050425 
-0.0021638818016728443 
-0.0001773315971013735 
-0.0008962053860871787 
-0.0017651288153664917 
-0.0017651288153665238 
-0.0008962053860872121 
-0.00017733159710137597 
-0.0003960943326825404 
-0.0008975286720639736 
-0.001654424161599183 
-0.001654424161599166 
-0.0008975286720639322 
-0.00039609433268249195 
-0.000537215302763133 
-0.0009524829697842328 
-0.001528909378838622 
-0.0015289093788385996 
-0.0009524829697841913 
-0.0005372153027630952 
-0.0005783660955531295 
-0.0009678631157645863 
-0.001492953836463247 
-0.001492953836463242 
-0.0009678631157645798 
-0.0005783660955531265 
-0.0005852595959696702 
-0.000971114493982784 
-0.00148625570803678 
-0.0014862557080367773 
-0.0009711144939827855 
-0.0005852595959696784 
-0.0005857501730004756 
-0.0009714374505297801 
-0.0014856874629743451 
-0.0014856874629743373 
-0.0009714374505297699 
-0.000585750173000471 
-0.0005855853903293488 
-0.0009714070384600187 
-0.0014858002663796156 
-0.001485800266379617 
-0.0009714070384600251 
-0.0005855853903293593 
-0.0005855078474895645 
-0.0009713803531190438 
-0.0014858657231404514 
-0.0014858657231404632 
-0.0009713803531190647 
-0.0005855078474895827 
-0.0005854889861975927 
-0.0009713729278176405 
-0.0014858825790879046 
-0.0014858825790879059 
-0.0009713729278176236 
-0.0005854889861975563 
-0.0005854862196081132 
-0.0009713716234446525 
-0.0014858852667556425 
-0.0014858852667556034 
-0.0009713716234446045 
-0.0005854862196080951 
-0.0005854861552522253 
-0.0009713715308817541 
-0.0014858853914966209 
-0.0014858853914965007 
-0.000971371530881613 
-0.0005854861552521836 
-0.000585486262925729 
-0.0009713715597469395 
-0.0014858853087948087 
-0.0014858853087945764 
-0.0009713715597465509 
-0.0005854862629254159 
-0.0005854863024389054 
-0.0009713715739580368 
-0.0014858852748272898 
-0.0014858852748268858 
-0.0009713715739572544 
-0.000585486302438149 
-0.0005854863108546412 
-0.0009713715774308515 
-0.0014858852671469987 
-0.0014858852671464301 
-0.0009713715774296854 