<?xml version="1.0"?>
<VTKFile type="UnstructuredGrid" version="0.1" byte_order="LittleEndian" compressor="vtkZLibDataCompressor">
<UnstructuredGrid>
<Piece NumberOfPoints="306" NumberOfCells="250">
<PointData>
<DataArray type="Float64" Name="displacement" NumberOfComponents="3" format="ascii" >
0.0 0.0  0.
0.0 0.0  0.
0.0 0.0  0.
0.0 0.0  0.
0.0 0.0  0.
0.0 0.0  0.
0.14603549178375477 -0.09751210465354157  0.
0.07594269793579621 -0.03443185723527466  0.
0.024998924632974106 -0.0097798363298537  0.
-0.024998924632978994 -0.00977983632985454  0.
-0.07594269793580122 -0.034431857235277405  0.
-0.1460354917837613 -0.09751210465354723  0.
0.29371654295791744 -0.1925982871780915  0.
0.17005386023037475 -0.13404189879934034  0.
0.054974869842441314 -0.10245272087437582  0.
-0.05497486984245207 -0.1024527208743772  0.
-0.170053860230386 -0.1340418987993446  0.
-0.29371654295792965 -0.19259828717809863  0.
0.4403019169570612 -0.34627254819015146  0.
0.2604433234322037 -0.28809400705335686  0.
0.08600671310382438 -0.258522712071849  0.
-0.08600671310384148 -0.25852271207185057  0.
-0.26044332343222115 -0.2880940070533616  0.
-0.4403019169570792 -0.3462725481901592  0.
0.5853401731107754 -0.5577667157184312  0.
0.34801881237568083 -0.5010686381342798  0.
0.11542032572208781 -0.4725720422607383  0.
-0.11542032572211128 -0.4725720422607399  0.
-0.3480188123757045 -0.5010686381342846  0.
-0.5853401731107992 -0.5577667157184388  0.
0.7275342871866834 -0.8270106328854445  0.
0.433409900029472 -0.771570635841405  0.
0.14394388749069972 -0.7438353161188727  0.
-0.14394388749072948 -0.7438353161188741  0.
-0.4334099000295018 -0.7715706358414095  0.
-0.7275342871867132 -0.8270106328854522  0.
0.8666464736695312 -1.1525779530548423  0.
0.5168764319252096 -1.0983807101099325  0.
0.1717730749661276 -1.0712819621937928  0.
-0.17177307496616356 -1.0712819621937943  0.
-0.5168764319252456 -1.0983807101099372  0.
-0.8666464736695672 -1.15257795305485  0.
1.0026313255423316 -1.5331807697535287  0.
0.5984636112868446 -1.4802158532413383  0.
0.19896891068232925 -1.4537343103190183  0.
-0.1989689106823714 -1.4537343103190197  0.
-0.5984636112868866 -1.480215853241343  0.
-1.0026313255423738 -1.5331807697535362  0.
1.1354880865496157 -1.9675532065884334  0.
0.6781764291936766 -1.9158199892077286  0.
0.22553950058534336 -1.8899536619811952  0.
-0.22553950058539168 -1.8899536619811967  0.
-0.6781764291937249 -1.9158199892077332  0.
-1.1354880865496642 -1.9675532065884411  0.
1.2652181220731973 -2.4544428730312045  0.
0.7560142039212564 -2.4039413204096105  0.
0.2514853118201256 -2.3786906018693834  0.
-0.2514853118201802 -2.3786906018693847  0.
-0.7560142039213108 -2.403941320409615  0.
-1.265218122073252 -2.454442873031212  0.
1.3918220019640932 -2.992599192892869  0.
0.8319765056987379 -2.9433293660028874  0.
0.2768060555597936 -2.918694458363971  0.
-0.27680605555985427 -2.918694458363973  0.
-0.8319765056987986 -2.9433293660028923  0.
-1.3918220019641538 -2.992599192892876  0.
1.5152998464116914 -3.5807718231530155  0.
0.9060632149852034 -3.5327337382509576  0.
0.301501622829786 -3.508714695173776  0.
-0.30150162282985277 -3.5087146951737775  0.
-0.9060632149852703 -3.5327337382509616  0.
-1.5152998464117575 -3.5807718231530234  0.
1.635651671072998 -4.2177103810744665  0.
0.9782743118888672 -4.170904041696373  0.
0.32557198869072856 -4.147500871510036  0.
-0.325571988690801 -4.1475008715100365  0.
-0.9782743118889402 -4.170904041696376  0.
-1.6356516710730704 -4.217710381074473  0.
1.7528774754703584 -4.902164464391637  0.
1.048609795121259 -4.856589870861314  0.
0.3490171499652309 -4.83380257395825  0.
-0.34901714996530814 -4.83380257395825  0.
-1.048609795121338 -4.856589870861316  0.
-1.7528774754704384 -4.902164464391642  0.
1.8669772587387095 -5.63288366537813  0.
1.1170696651857999 -5.58854081765757  0.
0.37183710670933856 -5.566369393773351  0.
-0.3718371067094188 -5.56636939377335  0.
-1.1170696651858851 -5.58854081765757  0.
-1.8669772587387985 -5.632883665378135  0.
1.977951020602568 -6.408617575458117  0.
1.1836539223115987 -6.365506473516945  0.
0.3940318590944971 -6.343950922544691  0.
-0.39403185909457766 -6.34395092254469  0.
-1.1836539223116902 -6.365506473516945  0.
-1.9779510206026711 -6.4086175754581225  0.
2.085798761009207 -7.228115786008444  0.
1.248362566553299 -7.186236429838443  0.
0.4156014071758087 -7.165296751753987  0.
-0.4156014071758889 -7.165296751753989  0.
-1.2483625665533962 -7.18623642983845  0.
-2.0857987610093316 -7.228115786008461  0.
2.190520479953481 -8.090127888431363  0.
1.311195597918744 -8.049480278031112  0.
0.4365457509640793 -8.029156472831259  0.
-0.43654575096416937 -8.029156472831277  0.
-1.3111955979188465 -8.049480278031155  0.
-2.1905204799536353 -8.09012788843142  0.
2.2921161774361236 -8.993403474139697  0.
1.372153016408056 -8.9539876095091  0.
0.45686489046038514 -8.934279677193905  0.
-0.45686489046052914 -8.934279677193969  0.
-1.3721530164081626 -8.953987609509248  0.
-2.2921161774362924 -8.99340347413986  0.
2.3905858534576567 -9.936692134548718  0.
1.431234822020911 -9.898508015687801  0.
0.47655882566455443 -9.879415956257457  0.
-0.47655882566487817 -9.879415956257622  0.
-1.4312348220210196 -9.898508015688176  0.
-2.39058585345775 -9.93669213454909  0.
2.485929508018314 -10.91874346107405  0.
1.4884410147571925 -10.881791087982798  0.
0.4956275565764165 -10.863314901437402  0.
-0.49562755657719604 -10.863314901437738  0.
-1.488441014757301 -10.881791087983553  0.
-2.485929508018034 -10.918743461074726  0.
2.5781471411183285 -11.938307045131447  0.
1.543771594616875 -11.902586417809792  0.
0.5140710831958498 -11.884726104149346  0.
-0.5140710831975509 -11.884726104149843  0.
-1.5437715946169837 -11.9025864178109  0.
-2.578147141116956 -11.938307045132255  0.
2.6672387527580264 -12.994132478137015  0.
1.597226561599948 -12.959643596584822  0.
0.5318894055228605 -12.942399155809074  0.
-0.5318894055259281 -12.942399155809339  0.
-1.5972265616000743 -12.959643596585389  0.
-2.6672387527541943 -12.994132478136788  0.
2.753204342937617 -14.084969351507674  0.
1.6488059157063886 -14.051712215724766  0.
0.5490825235579796 -14.035083647832755  0.
-0.5490825235617963 -14.03508364783125  0.
-1.6488059157065946 -14.051712215721327  0.
-2.7532043429295365 -14.084969351502597  0.
2.83604391165627 -15.209567256661796  0.
1.6985096569361469 -15.177541866648168  0.
0.565650437303295 -15.161529171637302  0.
-0.5656504373030672 -15.16152917162987  0.
-1.6985096569365952 -15.177541866631381  0.
-2.836043911643815 -15.209567256642513  0.
2.9157574589095447 -16.366675785019265  0.
1.7463377852891375 -16.335882140775812  0.
0.5815931467644696 -16.320485318640632  0.
-0.5815931467440784 -16.32048531861848  0.
-1.7463377852901618 -16.33588214072597  0.
-2.9157574589014708 -16.366675784967867  0.
2.9923449846838546 -17.555044527998604  0.
1.7922903007652764 -17.52548262952896  0.
0.5969106519535154 -17.510701680260908  0.
-0.5969106518728182 -17.51070168021011  0.
-1.7922903007673798 -17.525482629415023  0.
-2.992344984716088 -17.555044527891308  0.
3.0658064889474352 -18.773423077005088  0.
1.8363672033646659 -18.74509292431924  0.
0.6116029528895233 -18.730927847912064  0.
-0.6116029526701958 -18.73092784782204  0.
-1.8363672033681473 -18.74509292411812  0.
-3.065806489119434 -18.773423076838785  0.
3.1361419716426044 -20.020561023397455  0.
1.878568493088156 -19.993462616516886  0.
0.6256700495872468 -19.97991341298969  0.
-0.6256700491214575 -19.979913412889864  0.
-1.878568493091612 -19.993462616296217  0.
-3.13614197216919 -20.020561023282745  0.
3.2033514327013655 -21.295207958415723  0.
1.9188941699386457 -21.269341297375252  0.
0.6391119420073114 -21.256407966837404  0.
-0.6391119412659789 -21.256407966901165  0.
-1.9188941699348776 -21.26934129752716  0.
-3.2033514339333533 -21.295207958814373  0.
3.2674348721482884 -22.596113473062207  0.
1.957344233923406 -22.57147855789099  0.
0.6519286299146613 -22.55916110068433  0.
-0.6519286293388136 -22.559161101458027  0.
-1.9573442338906721 -22.5714785596455  0.
-3.267434874387355 -22.596113475262552  0.
3.3283922904343948 -23.922027157996027  0.
1.993918685056743 -23.89862398863126  0.
0.6641201125659045 -23.886922405567155  0.
-0.6641201140833565 -23.886922408354962  0.
-1.9939186849446902 -23.89862399491529  0.
-3.328392293080175 -23.922027164799378  0.
3.3862236892500492 -25.271698603723692  0.
2.0286175233586716 -25.249527179761362  0.
0.6756863881821031 -25.2384414723399  0.
-0.6756863972785615 -25.23844147956911  0.
-2.02861752307693 -25.249527196002415  0.
-3.3862236883214396 -25.27169861974954  0.
3.4409290730722977 -26.643877401913453  0.
2.0614407488358006 -26.622937722050597  0.
0.686627453442756 -26.612467892116644  0.
-0.6866274822449998 -26.61246790681753  0.
-2.061440748280858 -26.6229377549688  0.
-3.440929055634026 -26.643877431276028  0.
3.492508451192368 -28.03731314970509  0.
2.092388361411158 -28.017605210782428  0.
0.6969433041758408 -28.007751258005044  0.
-0.6969433731548614 -28.00775127982362  0.
-2.092388360633712 -28.017605259362128  0.
-3.4925083857263632 -28.037313185070193  0.
3.540961837875974 -29.450755460273257  0.
2.1214603607402127 -29.432279256304923  0.
0.7066339407578031 -29.423041169800598  0.
-0.7066340696314493 -29.423041181623677  0.
-2.1214603604803806 -29.43227928166475  0.
-3.5409616643318627 -29.450755450787124  0.
3.586289242515295 -30.882953983085848  0.
2.1486567458313273 -30.865709506304484  0.
0.7156993863013612 -30.857087243932227  0.
-0.7156995485566029 -30.857087178627694  0.
-2.1486567488093873 -30.86570935701723  0.
-3.5862888820593994 -30.882953761781707  0.
3.6284906291164742 -32.33265843085324  0.
2.1739775144644176 -32.3166456809532  0.
0.7241397319914414 -32.308639129238784  0.
-0.7241397187111982 -32.30863880487085  0.
-2.1739775278104307 -32.31664494806434  0.
-3.6284900749291107 -32.33265758814349  0.
3.6675658040532753 -33.79861858330728  0.
2.1974226627997324 -33.78383759923208  0.
0.7319552256300046 -33.77644651908098  0.
-0.7319543321600306 -33.77644554997141  0.
-2.1974227011690295 -33.783835418641516  0.
-3.6675654367368646 -33.79861633292761  0.
3.7035141733831174 -35.27958416291321  0.
2.2189921868643885 -35.26603510324721  0.
0.7391463938393547 -35.259259118229735  0.
-0.7391428620485752 -35.25925689214324  0.
-2.2189922723831534 -35.26603010968388  0.
-3.7035155620924236 -35.27957945683116  0.
3.736334345941448 -36.77430431579931  0.
2.238686090945876 -36.761987616639715  0.
0.745714076733855 -36.75582644670578  0.
-0.7457044693859985 -36.755822492178815  0.
-2.2386862370322667 -36.76197878215409  0.
-3.7363418434218927 -36.774297000035276  0.
3.766023785422799 -38.281526160467536  0.
2.2565044168109116 -38.270442760461094  0.
0.7516589373869451 -38.26489721431036  0.
-0.7516385045371523 -38.26489280489878  0.
-2.2565045624286175 -38.27043300676656  0.
-3.7660468116452313 -38.281521044281554  0.
3.79257946132202 -39.799991644475796  0.
2.2724473250100363 -39.790143042102294  0.
0.7569793112992017 -39.78521782956605  0.
-0.7569467037076897 -39.7852205167605  0.
-2.272447158053361 -39.79014948227599  0.
-3.792633432888142 -39.80000888301538  0.
3.8160021888033033 -41.32843221977081  0.
2.286515291684472 -41.31981973886207  0.
0.7616650695224849 -41.31552955623285  0.
-0.7616394439235725 -41.31556328649044  0.
-2.2865138565312035 -41.319896119018395  0.
-3.8161005245982373 -41.3285282555341  0.
3.836311097421449 -42.86556399450333  0.
2.2987093078651197 -42.85818475617226  0.
0.765683801021442 -42.854565574250856  0.
-0.7657492983459672 -42.85468718282103  0.
-2.2987044671585446 -42.85845953768354  0.
-3.8364277576974484 -42.86586134867424  0.
3.853578853544813 -44.410091098323804  0.
2.309029714041745 -44.403931654892006  0.
0.7689558651816618 -44.40105271172273  0.
-0.7693524635593719 -44.40137008173995  0.
-2.3090175149748564 -44.40464181569268  0.
-3.8535409043611475 -44.41079443163917  0.
3.868013929975173 -45.960763116238844  0.
2.3174639532484713 -45.95576679217916  0.
0.7713192500427575 -45.953753463729164  0.
-0.7725768844000223 -45.954391504188095  0.
-2.317442787464821 -45.95721430000561  0.
-3.8672507473148956 -45.96204725681078  0.
3.880084322663908 -47.51648413494498  0.
2.323925818276276 -47.51262336067642  0.
0.7725234603857168 -47.51155510504453  0.
-0.7755336886499722 -47.51252968700217  0.
-2.323907479107526 -47.514730555488825  0.
-3.8772275969611667 -47.51807753879995  0.
3.8909326726625806 -49.07727486398708  0.
2.3280613818840004 -49.073937961612764  0.
0.7723419063455229 -49.073975656594044  0.
-0.7778843082834793 -49.074263305274584  0.
-2.328230442272143 -49.07512914941459  0.
-3.8831725778647783 -49.07676925054212  0.
3.9016024761096544 -50.64379714672621  0.
2.328702605629036 -50.643060673171995  0.
0.7724129696527444 -50.63996102917949  0.
-0.7786253740382091 -50.6368189588389  0.
-2.3302104883719275 -50.635370763309425  0.
-3.885424048512159 -50.6353680397446  0.
3.914933127830071 -52.248735184164055  0.
2.33374916073142 -52.2188641934964  0.
0.7756973517003604 -52.20252235695482  0.
-0.7772531209140622 -52.194721336915556  0.
-2.330335402870268 -52.19214923856458  0.
-3.8857316051260735 -52.19182985702162  0.
</DataArray>
<DataArray type="Float64" Name="Nodal_sigma_xx" NumberOfComponents="1" format="ascii" >
0.07071478630256028 
0.051803578528957936 
0.016446185377676965 
-0.01644618537768028 
-0.05180357852896147 
-0.07071478630256403 
0.06904290100484069 
0.051670179858342866 
0.017148729355921665 
-0.017148729355925103 
-0.05167017985834637 
-0.06904290100484424 
0.06692594742247963 
0.0508430165137746 
0.01738004280253388 
-0.01738004280253746 
-0.05084301651377806 
-0.06692594742248299 
0.06584269660043332 
0.04956077959933985 
0.016639431299122282 
-0.016639431299125845 
-0.04956077959934331 
-0.06584269660043673 
0.06452301126957138 
0.04843059246452164 
0.016169086829735068 
-0.016169086829738576 
-0.04843059246452507 
-0.06452301126957477 
0.06314240730011456 
0.04736056298003086 
0.015789359329972705 
-0.015789359329976174 
-0.04736056298003429 
-0.06314240730011798 
0.061741817896817666 
0.046306005944121174 
0.01543509699571146 
-0.015435096995714933 
-0.04630600594412464 
-0.06174181789682118 
0.06033861731369727 
0.045253647750299275 
0.015084339093449757 
-0.015084339093453237 
-0.04525364775030271 
-0.060338617313700715 
0.058935258860936 
0.04420135670479723 
0.014733727274328349 
-0.014733727274331847 
-0.04420135670480068 
-0.05893525886093944 
0.0575319950371828 
0.04314898089833549 
0.014382983379743218 
-0.01438298337974667 
-0.043148980898338976 
-0.057531995037186354 
0.056128766748519035 
0.042096573972154175 
0.014032190597893825 
-0.014032190597897232 
-0.04209657397215762 
-0.05612876674852245 
0.054725546645989054 
0.04104416032429923 
0.013681387001303873 
-0.013681387001307305 
-0.041044160324302595 
-0.05472554664599226 
0.053322327589627655 
0.03999174585964163 
0.013330582064826974 
-0.013330582064830248 
-0.03999174585964502 
-0.053322327589631194 
0.0519191085173603 
0.038939331428918394 
0.012979777170237516 
-0.012979777170240459 
-0.03893933142892189 
-0.051919108517364324 
0.05051588938935904 
0.03788691704813151 
0.012628972353451555 
-0.01262897235345371 
-0.037886917048135196 
-0.050515889389363855 
0.049112670243365436 
0.03683450268269121 
0.012278167561008501 
-0.012278167561009256 
-0.03683450268269524 
-0.049112670243371945 
0.047709451093826995 
0.03578208832014318 
0.011927362773229817 
-0.0119273627732298 
-0.0357820883201474 
-0.04770945109383491 
0.046306231943929285 
0.034729673957862056 
0.011576557985896114 
-0.011576557985899193 
-0.034729673957864984 
-0.04630623194393419 
0.04490301279408185 
0.033677259595539286 
0.011225753198490809 
-0.01122575319850986 
-0.03367725959553612 
-0.04490301279406762 
0.04349979364428751 
0.0326248452331953 
0.010874948411025955 
-0.01087494841109412 
-0.03262484523317381 
-0.043499793644210576 
0.042096574494546485 
0.03157243087085546 
0.010524143623515477 
-0.01052414362370076 
-0.03157243087079235 
-0.04209657449431668 
0.040693355344876135 
0.030520016508529937 
0.010173338835952696 
-0.010173338836355905 
-0.0305200165083946 
-0.040693355344355746 
0.039290136195252345 
0.029467602146207562 
0.009822534048363642 
-0.009822534049036925 
-0.02946760214599395 
-0.03929013619434954 
0.03788691704545491 
0.02841518778381686 
0.009471729260930373 
-0.009471729261562492 
-0.02841518778366164 
-0.03788691704451637 
0.03648369789472029 
0.027362773421133517 
0.009120924474258172 
-0.009120924473327121 
-0.02736277342162184 
-0.03648369789561984 
0.03508047874111006 
0.026310359057626943 
0.00877011968984711 
-0.0087701196828307 
-0.026310359060405485 
-0.03508047874959918 
0.03367725958075983 
0.02525794469231725 
0.008419314910609401 
-0.008419314887160826 
-0.025257944700992636 
-0.03367725961031949 
0.03227404040813302 
0.024205530324002196 
0.008068510140514627 
-0.00806851008234779 
-0.02420553034458489 
-0.032274040483316335 
0.030870821220930572 
0.023153115952912647 
0.0077177053804829135 
-0.007717705267471848 
-0.023153115990951538 
-0.030870821370888278 
0.02946760203854077 
0.022100701586197657 
0.007366900613670878 
-0.007366900459376488 
-0.022100701632944128 
-0.02946760225364807 
0.028064382950996107 
0.021048287251474274 
0.007016095767444388 
-0.007016095730695819 
-0.021048287242945617 
-0.028064383041563265 
0.026661164220751987 
0.01999587302302863 
0.006665290636291064 
-0.006665291286942083 
-0.019995872746669648 
-0.02666116347217827 
0.025257946439382846 
0.018943459057254246 
0.006314484768033112 
-0.0063144875803000525 
-0.018943457987726987 
-0.025257942953913294 
0.02385473063218332 
0.017891045599835537 
0.005963677404353795 
-0.00596368536911082 
-0.017891042720448384 
-0.023854720461455287 
0.022451517868523174 
0.016838632831228363 
0.005612867830144508 
-0.005612885368529427 
-0.016838626764408875 
-0.022451494925403437 
0.021048307150167853 
0.015786220206742523 
0.00526205708911599 
-0.0052620865346790086 
-0.015786210664202334 
-0.021048267344131857 
0.01964508891919709 
0.01473380459668959 
0.004911253088538334 
-0.004911280958059806 
-0.014733797548139284 
-0.019645047277264373 
0.01824182982711829 
0.013681376207621252 
0.004560482288147786 
-0.004560442166279959 
-0.01368139720170937 
-0.01824186808268746 
0.016838444969097175 
0.012628911770930312 
0.004209810380448091 
-0.004209504422193051 
-0.0126290328649989 
-0.016838814697478964 
0.01543476478216174 
0.011576368246053797 
0.003859365150782627 
-0.0038583398881756317 
-0.011576747541865523 
-0.015436056715760385 
0.014030545387415633 
0.010523692751087322 
0.0035093217611854976 
-0.0035067739664376946 
-0.010524594454895215 
-0.014033837569303056 
0.012625680179620504 
0.00947089616388273 
0.0031597259286551033 
-0.0031547662542986657 
-0.009472566018467157 
-0.012632259819171734 
0.011221002366680569 
0.008418296949150937 
0.002809859090864269 
-0.0028030613220627262 
-0.008420360274206066 
-0.011230471254179447 
0.009820405757200057 
0.007367130941472977 
0.00245658934087314 
-0.0024548707756995893 
-0.007366792219474202 
-0.009824520331548842 
0.008435425703588004 
0.006320629770385062 
0.002090924808167667 
-0.0021191782511455317 
-0.006308637659962389 
-0.008402903038480502 
0.007092365646811745 
0.005285254630244715 
0.0016922751155289061 
-0.0018150150029273076 
-0.005238457938935725 
-0.006940479254636707 
0.005842218162987096 
0.004267209568344845 
0.001221199838716009 
-0.001569047697979701 
-0.004142308920211031 
-0.005396323740733237 
0.004742856879117839 
0.003259924838681475 
0.0006228378449711484 
-0.0013871034811262927 
-0.0029942662845313358 
-0.0037456427151129 
0.0038418186052729987 
0.0021663607824646096 
-0.0001236994819181357 
-0.0011258136951875987 
-0.001797209820718405 
-0.0020810941745541046 
0.002334818537251829 
0.0009784481432333714 
-0.0004490969955711979 
-0.0006065397017666473 
-0.0007183122730536892 
-0.000743816882931393 
0.0012230569317013555 
0.00038099974909150413 
-0.00036632987229586394 
-0.0002715209977681054 
-0.0002451985935533359 
-0.00021895750264384152 
</DataArray>
<DataArray type="Float64" Name="Nodal_sigma_yy" NumberOfComponents="1" format="ascii" >
0.017132373306729873 
0.01320845817068641 
0.004642271517321183 
-0.004642271517322313 
-0.01320845817068747 
-0.017132373306730897 
0.008094847771421798 
0.00682012176566432 
0.002772697879953214 
-0.0027726978799540083 
-0.006820121765664965 
-0.008094847771422326 
-0.00047429844051639393 
8.884820144408221e-05 
0.0003259974217021998 
-0.00032599742170247564 
-8.884820144420972e-05 
0.0004742984405163731 
-5.957130695911396e-05 
-0.00019668761499896286 
-0.00016690196151942024 
0.00016690196151939108 
0.00019668761499895288 
5.957130695909488e-05 
-6.473686727328197e-05 
-8.525328788879156e-05 
-5.288485425214315e-05 
5.288485425218099e-05 
8.525328788882582e-05 
6.473686727330452e-05 
-9.776414681018225e-06 
-1.798902907343392e-05 
-1.3100821732921935e-05 
1.3100821732961942e-05 
1.7989029073464712e-05 
9.776414681011286e-06 
-1.6171651250201924e-06 
-2.417081499320314e-06 
-1.6084989368274024e-06 
1.608498936828595e-06 
2.4170814993168446e-06 
1.6171651249421298e-06 
9.254879626031942e-08 
5.341883580010226e-08 
7.144437639964359e-09 
-7.144437663708387e-09 
-5.34188357708288e-08 
-9.254879627419721e-08 
8.094171874764577e-08 
1.2537264058171127e-07 
8.490178116771869e-08 
-8.49017812235551e-08 
-1.2537264054853468e-07 
-8.094171873029854e-08 
2.6857350727063634e-08 
4.082038302104414e-08 
2.739170764027351e-08 
-2.7391707618372625e-08 
-4.08203830696164e-08 
-2.6857350936965174e-08 
4.840055133591148e-09 
7.916002687765114e-09 
5.495975160217659e-09 
-5.495975062422623e-09 
-7.916002717038573e-09 
-4.8400552307356626e-09 
4.64482903528296e-10 
8.002435205375219e-10 
5.680020461135485e-10 
-5.680022250069069e-10 
-8.002435114302237e-10 
-4.644826181662842e-10 
-7.797491385214128e-11 
-9.936736654857226e-11 
-6.038009778578865e-11 
6.037962301365732e-11 
9.936731754263406e-11 
7.797501273137941e-11 
-4.6732043582076166e-11 
-7.080760305346046e-11 
-4.74419384528281e-11 
4.744104973230731e-11 
7.08074681787102e-11 
4.673212251199432e-11 
-1.2441964993004095e-11 
-1.946839477823259e-11 
-1.3247816201249901e-11 
1.3246661200675552e-11 
1.946823279842802e-11 
1.2442335356466216e-11 
-2.0200412523263545e-12 
-3.3075944327193296e-12 
-2.2975351547487033e-12 
2.2977262995917125e-12 
3.3078839146993833e-12 
2.0203925338302398e-12 
-1.0952350137927169e-13 
-2.153804478516319e-13 
-1.5899271916391955e-13 
1.6464054512083104e-13 
2.185365603757372e-13 
1.1104398650596536e-13 
5.956433263287764e-14 
8.637751972018215e-14 
6.302402176527888e-14 
-4.074323343983277e-14 
-7.439361626726537e-14 
-5.44434289317941e-14 
3.089715983062291e-14 
5.361921844027062e-14 
5.613120645370229e-14 
5.877568397261168e-15 
-2.09127420242039e-14 
-1.7659484985443896e-14 
1.9969269293707015e-14 
4.4276214639094036e-14 
7.282699833813244e-14 
6.05490592560376e-14 
2.6489227478165844e-14 
8.951173136040325e-15 
2.4837770729035924e-14 
5.889559673288858e-14 
1.07107031577236e-13 
1.0507198409948071e-13 
5.653268651817367e-14 
2.418204525511669e-14 
2.4398018327875803e-14 
4.9794803697045253e-14 
8.086633034205815e-14 
8.047905332604632e-14 
4.9939653107289317e-14 
2.5462271180387575e-14 
-2.487246519855546e-14 
-9.636020280312518e-14 
-2.2475082775766375e-13 
-2.2454179357880855e-13 
-9.619843983899035e-14 
-2.4967007627996196e-14 
-2.2906503083230945e-13 
-6.450163753807248e-13 
-1.3226541173069761e-12 
-1.3226970517130066e-12 
-6.452856912003702e-13 
-2.295177936595394e-13 
-7.958052619660982e-13 
-2.1021112368152517e-12 
-4.167163359172776e-12 
-4.1677091465464056e-12 
-2.1025542418229293e-12 
-7.95599697234195e-13 
-2.0187679652949875e-12 
-5.132395810431012e-12 
-9.947469226372768e-12 
-9.948249418256089e-12 
-5.132747959296635e-12 
-2.017911879259593e-12 
-4.015311520777498e-12 
-9.799887138763064e-12 
-1.8514095963782784e-11 
-1.8514687829748744e-11 
-9.80014853990685e-12 
-4.014650591133151e-12 
-5.7333339464893385e-12 
-1.2922453363449493e-11 
-2.3111978341349912e-11 
-2.3112144441122737e-11 
-1.2922625534754484e-11 
-5.73334608955367e-12 
-2.318146542779065e-12 
-1.3427932810811116e-12 
2.705702198749216e-12 
2.7058840194535416e-12 
-1.342451432136127e-12 
-2.317826486297747e-12 
2.033944453833092e-11 
6.14852594836221e-11 
1.3054673937999348e-10 
1.305467678945106e-10 
6.148574639881776e-11 
2.0340361339687973e-11 
9.396631433025715e-11 
2.547280917013922e-10 
5.120769191438359e-10 
5.120764287591933e-10 
2.5472809766450416e-10 
9.396730702576628e-11 
2.7337395585094737e-10 
7.082192978770385e-10 
1.387785073057174e-09 
1.387788500653922e-09 
7.082237990507778e-10 
2.7337610300492976e-10 
6.152062266735758e-10 
1.5353495470436448e-09 
2.941671167072668e-09 
2.94168897953858e-09 
1.5353744768631383e-09 
6.152204613807388e-10 
1.0639963320124846e-09 
2.520959618249226e-09 
4.670291226801593e-09 
4.670341956187563e-09 
2.5210358775605915e-09 
1.0640473918632765e-09 
1.1030529328479033e-09 
2.2110637508182193e-09 
3.5923632699737425e-09 
3.5923657040076197e-09 
2.2110809304353232e-09 
1.1030824240143566e-09 
-1.0625938948183311e-09 
-4.139487062588404e-09 
-9.699773371456993e-09 
-9.700843252945083e-09 
-4.141006392064002e-09 
-1.0634927907933467e-09 
-9.99018346997324e-09 
-2.8124969559447516e-08 
-5.768349687604356e-08 
-5.769134824859046e-08 
-2.8136428276452283e-08 
-9.997398158888976e-09 
-3.4755873821318284e-08 
-9.190385800951148e-08 
-1.8223837550238086e-07 
-1.82272741421454e-07 
-9.195473270860472e-08 
-3.478889138135849e-08 
-8.833758082188795e-08 
-2.2477347937278512e-07 
-4.3578807010416075e-07 
-4.3586954552936286e-07 
-2.2489887694537337e-07 
-8.842542511666024e-08 
-1.762517776440417e-07 
-4.302488285663612e-07 
-8.129064248920315e-07 
-8.127674769667088e-07 
-4.3006884134667986e-07 
-1.7616969905532437e-07 
-2.534826827101794e-07 
-5.71558500691541e-07 
-1.0208206380595686e-06 
-1.0180321334931009e-06 
-5.675791468194059e-07 
-2.511009840988447e-07 
-1.1408642450563312e-07 
-8.10161860732351e-08 
9.106961013697322e-08 
1.0818977001809265e-07 
-5.574088174988305e-08 
-9.777613562116788e-08 
8.553820706484663e-07 
2.6237923000583976e-06 
5.645821326909381e-06 
5.7122400382589455e-06 
2.7215622974775854e-06 
9.180846427877132e-07 
4.012761282449692e-06 
1.1038189124601774e-05 
2.2314383280120678e-05 
2.242012529670381e-05 
1.1215668371948356e-05 
4.156235743976592e-06 
1.2353513600759031e-05 
3.1428841850214144e-05 
6.102977687171034e-05 
6.045030510113403e-05 
3.057131256193257e-05 
1.17973985653485e-05 
2.9214594986209453e-05 
7.226504819346976e-05 
0.00013240833835118874 
0.00012535393702081167 
6.256812113880977e-05 
2.3929543537643612e-05 
7.018440609371881e-05 
0.00013882637693968854 
0.0002223327165123977 
0.00018711048232791783 
8.379788892076893e-05 
3.057189842483926e-05 
8.393335523992603e-05 
0.00019116656965618867 
0.00021998967601642163 
8.587942568979007e-05 
1.6164426641733623e-05 
2.1495698642790386e-06 
0.0003111801306571728 
-1.0556494393216496e-05 
-0.0004596403269500943 
-0.000491930190057396 
-0.00024631796420629713 
-9.57630827543849e-05 
-0.003714906478283553 
-0.0035288698977846422 
-0.0027672736173626447 
-0.0015892942508906847 
-0.0005843654557076942 
-0.0001818563270735771 
-0.007984588001505907 
-0.0068330123494748886 
-0.004442659123771149 
-0.0022327388603492733 
-0.0007299040918415584 
-0.00019821201308299938 
</DataArray>
<DataArray type="Float64" Name="Nodal_sigma_xy" NumberOfComponents="1" format="ascii" >
-0.0058130797030881256 
-0.002590182721013342 
0.0017467225725535064 
0.0017467225725533437 
-0.0025901827210138284 
-0.0058130797030887735 
-0.0029507479113708647 
-0.0019342104848240256 
-0.0003404155594946409 
-0.0003404155594947568 
-0.0019342104848243161 
-0.002950747911371214 
-0.00024181581422888808 
-0.0012220982537546996 
-0.0024069938391352175 
-0.0024069938391352483 
-0.0012220982537547308 
-0.00024181581422889003 
-0.0005401286354758958 
-0.0012239027346321418 
-0.0022560329476343454 
-0.0022560329476343324 
-0.0012239027346320978 
-0.0005401286354758338 
-0.0007325663219493921 
-0.001298840413341568 
-0.0020848764256881517 
-0.002084876425688131 
-0.0012988404133415232 
-0.0007325663219493454 
-0.0007886810393902805 
-0.001319813339678409 
-0.0020358461406308342 
-0.0020358461406308295 
-0.0013198133396783978 
-0.0007886810393902681 
-0.0007980812672310301 
-0.0013242470372486833 
-0.002026712329140196 
-0.0020267123291402007 
-0.0013242470372486835 
-0.0007980812672310216 
-0.0007987502359094186 
-0.00132468743254006 
-0.0020259374495096203 
-0.0020259374495096216 
-0.0013246874325400571 
-0.0007987502359094107 
-0.0007985255322670113 
-0.0013246459615358758 
-0.0020260912723350038 
-0.002026091272334996 
-0.0013246459615358424 
-0.0007985255322669604 
-0.000798419792030941 
-0.0013246095724345434 
-0.0020261805315543256 
-0.00202618053155434 
-0.0013246095724345254 
-0.0007984197920308759 
-0.0007983940720872953 
-0.0013245994470234982 
-0.00202620351693717 
-0.0020262035169371544 
-0.0013245994470234893 
-0.0007983940720873086 
-0.0007983902994653145 
-0.0013245976683330751 
-0.0020262071819386307 
-0.002026207181938558 
-0.0013245976683330099 
-0.0007983902994653303 
-0.0007983902117073025 
-0.0013245975421109272 
-0.002026207352039959 
-0.002026207352039803 
-0.0013245975421106978 
-0.0007983902117071564 
-0.0007983903585347359 
-0.0013245975814725882 
-0.0020262072392648947 
-0.0020262072392645404 
-0.0013245975814720325 
-0.000798390358534334 
-0.0007983904124163427 
-0.0013245976008514266 
-0.0020262071929456234 
-0.002026207192945029 
-0.0013245976008503465 
-0.0007983904124153722 
-0.0007983904238923862 
-0.0013245976055870233 
-0.0020262071824723544 
-0.002026207182471608 
-0.0013245976055854636 
-0.0007983904238907584 
-0.0007983904252767216 
-0.0013245976062940812 
-0.002026207181071955 
-0.002026207181072091 