<?xml version="1.0"?>
<VTKFile type="UnstructuredGrid" version="0.1" byte_order="LittleEndian" compressor="vtkZLibDataCompressor">
<UnstructuredGrid>
<Piece NumberOfPoints="306" NumberOfCells="250">
<PointData>
<DataArray type="Float64" Name="displacement" NumberOfComponents="3" format="ascii" >
0.0 0.0  0.
0.0 0.0  0.
0.0 0.0  0.
0.0 0.0  0.
0.0 0.0  0.
0.0 0.0  0.
0.058414196713543726 -0.03900484186144673  0.
0.03037707917433885 -0.013772742894122482  0.
0.009999569853195308 -0.003911934531947806  0.
-0.00999956985320018 -0.003911934531948642  0.
-0.030377079174343853 -0.013772742894125221  0.
-0.058414196713550234 -0.03900484186145238  0.
0.11748661718324963 -0.0770393148712972  0.
0.06802154409219528 -0.05361675951978108  0.
0.021989947936988864 -0.040981088349787274  0.
-0.021989947936999592 -0.040981088349788655  0.
-0.06802154409220647 -0.05361675951978537  0.
-0.11748661718326178 -0.0770393148713043  0.
0.1761207667829462 -0.13850901927616852  0.
0.10417732937295013 -0.11523760282143565  0.
0.03440268524154881 -0.10340908482882535  0.
-0.034402685241565874 -0.10340908482882691  0.
-0.10417732937296752 -0.11523760282144033  0.
-0.17612076678296404 -0.13850901927617618  0.
0.23413606924446906 -0.2231066862875436  0.
0.13920752495036265 -0.200427455253869  0.
0.04616813028886019 -0.18902881690444578  0.
-0.04616813028888363 -0.1890288169044474  0.
-0.13920752495038627 -0.2004274552538737  0.
-0.23413606924449276 -0.22310668628755131  0.
0.29101371487486727 -0.33080425315442746  0.
0.1733639600118994 -0.3086282543367984  0.
0.05757755499631046 -0.2975341264477794  0.
-0.057577554996340194 -0.29753412644778093  0.
-0.1733639600119292 -0.308628254336803  0.
-0.29101371487489713 -0.3308042531544351  0.
0.3466585894680393 -0.46103118122227943  0.
0.20675057277021341 -0.4393522840443032  0.
0.06870922998648667 -0.42851278487784156  0.
-0.06870922998652262 -0.4285127848778431  0.
-0.20675057277024939 -0.4393522840443078  0.
-0.34665858946807526 -0.4610311812222871  0.
0.40105253021719 -0.6132723079018603  0.
0.23938544451488503 -0.5920863412969726  0.
0.07958756427297198 -0.5814937241280393  0.
-0.07958756427301412 -0.5814937241280408  0.
-0.23938544451492716 -0.5920863412969772  0.
-0.4010525302172322 -0.6132723079018678  0.
0.4541952346201322 -0.7870212826359411  0.
0.27127057167763424 -0.7663279956836484  0.
0.09021580023418185 -0.7559814647930302  0.
-0.09021580023423016 -0.7559814647930316  0.
-0.2712705716776825 -0.766327995683653  0.
-0.45419523462018047 -0.7870212826359485  0.
0.5060872488295911 -0.9817771492131798  0.
0.3024056815686812 -0.9615765281645324  0.
0.10059412472809856 -0.9514762407484372  0.
-0.10059412472815303 -0.9514762407484386  0.
-0.3024056815687356 -0.961576528164537  0.
-0.5060872488296456 -0.9817771492131873  0.
0.5567288007859736 -1.1970396771579868  0.
0.33279060227968754 -1.1773317464019852  0.
0.11072242222396911 -1.1674777833464147  0.
-0.1107224222240297 -1.1674777833464163  0.
-0.3327906022797481 -1.17733174640199  0.
-0.5567288007860343 -1.1970396771579943  0.
0.6061199385650348 -1.4323087292621968  0.
0.3624252859942862 -1.4130934953013652  0.
0.12060064913196897 -1.4034858780704893  0.
-0.12060064913203575 -1.4034858780704909  0.
-0.362425285994353 -1.4130934953013699  0.
-0.6061199385651015 -1.4323087292622043  0.
0.6542606684295773 -1.6870841524309372  0.
0.3913097247557628 -1.6683616166796926  0.
0.13022879547634844 -1.6590003486051543  0.
-0.1302287954764212 -1.6590003486051559  0.
-0.3913097247558358 -1.668361616679697  0.
-0.6542606684296501 -1.6870841524309443  0.
0.7011509901885391 -1.960865785757974  0.
0.41944391804872944 -1.9426359483458386  0.
0.13960685998615144 -1.9335210295846104  0.
-0.1396068599862299 -1.9335210295846115  0.
-0.41944391804880854 -1.9426359483458424  0.
-0.7011509901886186 -1.960865785757981  0.
0.746790903495895 -2.2531534661527473  0.
0.44682786607455444 -2.2354163270645175  0.
0.1487348426837961 -2.2265477575108275  0.
-0.1487348426838795 -2.2265477575108283  0.
-0.44682786607463976 -2.2354163270645206  0.
-0.7467909034959818 -2.253153466152754  0.
0.791180408241452 -2.5634470301849244  0.
0.47346156892488134 -2.5462025894084506  0.
0.15761274363786074 -2.537580369019547  0.
-0.15761274363794803 -2.5375803690195475  0.
-0.4734615689249727 -2.546202589408453  0.
-0.7911804082415479 -2.563447030184931  0.
0.834319504404119 -2.891246314405243  0.
0.4993450266215676 -2.8744945719372383  0.
0.1662405628703862 -2.8661187007034545  0.
-0.166240562870477 -2.8661187007034568  0.
-0.4993450266216649 -2.874494571937244  0.
-0.8343195044042273 -2.8912463144052536  0.
0.8762081919818381 -3.236051155374603  0.
0.5244782391677505 -3.2197921112144994  0.
0.1746183003856949 -3.211662589134557  0.
-0.1746183003857932 -3.2116625891345656  0.
-0.5244782391678535 -3.21979211121452  0.
-0.8762081919819619 -3.2360511553746303  0.
0.9168464709749026 -3.5973613896581336  0.
0.5488612065634791 -3.5815950438058928  0.
0.1827459561842173 -3.573711870879813  0.
-0.1827459561843408 -3.57371187087984  0.
-0.5488612065635875 -3.5815950438059545  0.
-0.9168464709750359 -3.597361389658203  0.
0.9562343413835213 -3.9746768538219417  0.
0.5724939288086239 -3.9594032062775733  0.
0.19062353026588486 -3.9517663825054354  0.
-0.19062353026608359 -3.9517663825055025  0.
-0.5724939288087365 -3.959403206277726  0.
-0.9562343413836275 -3.9746768538220953  0.
0.9943718032077878 -4.367497384432276  0.
0.5953764059031382 -4.352716435195775  0.
0.19825102263062916 -4.345325960577616  0.
-0.19825102263101363 -4.3453259605777514  0.
-0.5953764059032541 -4.352716435196079  0.
-0.9943718032077484 -4.367497384432551  0.
1.0312588564477958 -4.7753228180554395  0.
0.6175086378470119 -4.761034567126777  0.
0.20562843327840158 -4.753890441662598  0.
-0.20562843327915806 -4.753890441662798  0.
-0.6175086378471314 -4.761034567127223  0.
-1.031258856447323 -4.775322818055766  0.
1.0668955011036754 -5.197652991257871  0.
0.6388906246402406 -5.183857438636995  0.
0.21275576220920467 -5.176959662326696  0.
-0.21275576221051112 -5.176959662326802  0.
-0.6388906246403706 -5.183857438637224  0.
-1.0668955011022219 -5.197652991257785  0.
1.1012817371755108 -5.633987740606341  0.
0.6595223662828156 -5.620684886293178  0.
0.21963300942325092 -5.614033459136374  0.
-0.21963300942486008 -5.614033459135773  0.
-0.6595223662829808 -5.620684886291805  0.
-1.1012817371723613 -5.633987740604313  0.
1.1344175646629695 -6.083826902668195  0.
0.6794038627747169 -6.071016746662745  0.
0.22626017492137526 -6.064611668658399  0.
-0.2262601749213698 -6.064611668655427  0.
-0.6794038627749821 -6.071016746656032  0.
-1.1344175646580736 -6.083826902660485  0.
1.1663029835642753 -6.546670314011387  0.
0.6985351141159104 -6.534352856314008  0.
0.23263725870584331 -6.528194127459936  0.
-0.23263725869777552 -6.528194127451076  0.
-0.6985351141164092 -6.534352856294074  0.
-1.166302983561135 -6.54667031399083  0.
1.1969379938739941 -7.022017811203327  0.
0.7169161203063626 -7.01019305181547  0.
0.2387642607814594 -7.00428067210825  0.
-0.2387642607492724 -7.0042806720879325  0.
-0.716916120307296 -7.010193051769897  0.
-1.1969379938869793 -7.02201781116041  0.
1.22632259557942 -7.509369230806119  0.
0.7345468813461141 -7.498037169731783  0.
0.24464118115586006 -7.492371139168913  0.
-0.2446411810682241 -7.4923711391329055  0.
-0.7345468813476017 -7.498037169651337  0.
-1.2263225956483144 -7.509369230739602  0.
1.2544567886574807 -8.008224409363264  0.
0.7514273972355054 -7.997385046611039  0.
0.25026801983494706 -7.991965365200162  0.
-0.2502680196487291 -7.991965365160234  0.
-0.7514273972369854 -7.997385046522774  0.
-1.2544567888682123 -8.008224409317382  0.
1.2813405730809768 -8.518083183370766  0.
0.7675576679756957 -8.507736518954582  0.
0.2556447768029699 -8.502563186739446  0.
-0.2556447765065376 -8.50256318676495  0.
-0.767557667974289 -8.507736519015346  0.
-1.2813405735738725 -8.51808318353023  0.
1.3069739488597365 -9.038445389229553  0.
0.7829376935695938 -9.028591423161071  0.
0.26077145196590684 -9.023664440278408  0.
-0.26077145173567146 -9.023664440587888  0.
-0.7829376935566038 -9.028591423862876  0.
-1.3069739497554675 -9.038445390109695  0.
1.3313569161741696 -9.56881086320327  0.
0.7975674740229226 -9.559449595457368  0.
0.2656480450264016 -9.554768962231726  0.
-0.2656480456334885 -9.55476896334685  0.
-0.7975674739782077 -9.55944959797098  0.
-1.3313569172325885 -9.568810865924613  0.
1.354489475700421 -10.10867944149452  0.
0.8114470093436876 -10.099810871909591  0.
0.27027455527287797 -10.09537658894101  0.
-0.27027455891157054 -10.095376591832697  0.
-0.8114470092310999 -10.099810878406016  0.
-1.3544894753290868 -10.108679447904862  0.
1.3763716292293104 -10.657550960770607  0.
0.8245762995345327 -10.649175088825467  0.
0.2746509813771364 -10.644987156851888  0.
-0.2746509928981452 -10.644987162732244  0.
-0.8245762993126675 -10.64917510199275  0.
-1.3763716222541136 -10.65755097251564  0.
1.3970033804773285 -11.214925259887439  0.
0.8369553445646694 -11.207042084318378  0.
0.2787773216703672 -11.203100503207427  0.
-0.27877734926208925 -11.203100511934858  0.
-0.8369553442538047 -11.207042103750261  0.
-1.3970033542910407 -11.214925274033483  0.
1.4163847351507615 -11.78030218411488  0.
0.8485841442962848 -11.772911702527551  0.
0.2826535763031494 -11.769216467925823  0.
-0.2826536278527238 -11.769216472655055  0.
-0.8485841441924677 -11.772911712671483  0.
-1.4163846657332326 -11.78030218032043  0.
1.4345156970064799 -12.353181593240086  0.
0.8594626983327247 -12.346283802527545  0.
0.2862797545205696 -12.342834897578644  0.
-0.2862798194227848 -12.34283487145683  0.
-0.8594626995240662 -12.346283742812645  0.
-1.4345155528242393 -12.353181504718432  0.
1.4513962516469414 -12.93306337234721  0.
0.8695910057859546 -12.926658272387199  0.
0.28965589279659865 -12.923455651701435  0.
-0.2896558874846227 -12.92345552195426  0.
-0.8695910111244793 -12.926657979231653  0.
-1.4513960299721147 -12.933063035263313  0.
1.4670263216216528 -13.519447433328988  0.
0.8789690651200746 -13.513535039698912  0.
0.2927820902520215 -13.510578607638472  0.
-0.2927817328641542 -13.510578219994649  0.
-0.8789690804679151 -13.513534167462687  0.
-1.4670261746952091 -13.51944653317712  0.
1.4814056693535802 -14.111833665171517  0.
0.8875968747459311 -14.106414041305122  0.
0.29565855753575937 -14.103703647298133  0.
-0.29565714481957156 -14.103702756863536  0.
-0.8875969089535607 -14.106412043879791  0.
-1.481406224837425 -14.111831782738697  0.
1.4945337383769048 -14.709721726326112  0.
0.8954744363785212 -14.704795046662277  0.
0.2982856306935573 -14.702330578688706  0.
-0.29828178775454034 -14.702328996877917  0.
-0.8954744948132025 -14.704791512868027  0.
-1.4945367373692062 -14.7097188000205  0.
1.5064095141694385 -15.312610464193554  0.
0.9026017667245313 -15.30817710419098  0.
0.30066357495479124 -15.305958885730687  0.
-0.3006554018150013 -15.305957121966056  0.
-0.9026018249717401 -15.308173202713167  0.
-1.5064187246585372 -15.312608417719161  0.
1.5170317845291215 -15.919996657797007  0.
0.9089789300041784 -15.916057216847609  0.
0.30279172451969216 -15.91408713183311  0.
-0.3027786814832161 -15.914088206710892  0.
-0.9089788632216352 -15.916059792917086  0.
-1.5170533731556977 -15.920003553212842  0.
1.52640087552163 -16.53137288791516  0.
0.9146061166739501 -16.527927895551667  0.
0.30466602780900465 -16.52621182249998  0.
-0.3046557775695692 -16.526225314603014  0.
-0.9146055426127713 -16.527958447614196  0.
-1.5264402098397336 -16.531411302220477  0.
1.5345244389688866 -17.146225597808318  0.
0.9194837231462067 -17.143273902475883  0.
0.30627352040858674 -17.141826229707327  0.
-0.30629971933852707 -17.141874873135396  0.
-0.9194817868637071 -17.143383815080398  0.
-1.534571103079416 -17.14634453947668  0.
1.5414315414182316 -17.76403643933665  0.
0.9236118856168555 -17.761572661963932  0.
0.30758234607267365 -17.760421084696222  0.
-0.30774098542388956 -17.76054803270311  0.
-0.9236070059902314 -17.761856726284204  0.
-1.541416361744896 -17.764317772662796  0.
1.5472055719903746 -18.38430524650282  0.
0.9269855812995456 -18.382306716878944  0.
0.30852770001711205 -18.381501385498947  0.
-0.30903075376015 -18.38175660168252  0.
-0.9269771149862177 -18.382885720009526  0.
-1.5469002989263934 -18.38481890273159  0.
1.5520337290658688 -19.00659365398542  0.
0.9295703273106672 -19.005049344277996  0.
0.30900938415429546 -19.00462204202524  0.
-0.3102134754601291 -19.005011874808293  0.
-0.9295629916432999 -19.005892222202956  0.
-1.550891038784903 -19.00723101552741  0.
1.5563730690653386 -19.630909945602404  0.
0.931224552753757 -19.62957518465268  0.
0.30893676253821734 -19.629590262645188  0.
-0.3111537233135324 -19.62970532211741  0.
-0.9312921769091465 -19.63005165977341  0.
-1.5532690311463484 -19.63070770022442  0.
1.5606409904441678 -20.257518858698205  0.
0.9314810422517714 -20.25722426927652  0.
0.3089651878611053 -20.25598441167952  0.
-0.3114501496154248 -20.254727583543282  0.
-0.9320841953490607 -20.254148305331494  0.
-1.5541696194053012 -20.25414721590556  0.
1.5659732511323337 -20.89949407367349  0.
0.9334996642927251 -20.887545677406433  0.
0.31027894068015116 -20.8810089427898  0.
-0.31090124836576577 -20.877888534774094  0.
-0.9321341611483976 -20.8768596954337  0.
-1.5542926420508656 -20.876731942816516  0.
</DataArray>
<DataArray type="Float64" Name="Nodal_sigma_xx" NumberOfComponents="1" format="ascii" >
0.02828591452104396 
0.020721431411597345 
0.006578474151074538 
-0.006578474151077847 
-0.02072143141160087 
-0.028285914521047697 
0.027617160401955367 
0.020668071943351102 
0.0068594917423725615 
-0.006859491742375992 
-0.020668071943354592 
-0.027617160401958905 
0.02677037896900976 
0.020337206605523163 
0.006952017121017388 
-0.006952017121020953 
-0.02033720660552661 
-0.026770378969013103 
0.026337078640190328 
0.019824311839748456 
0.0066557725196523965 
-0.006655772519655958 
-0.019824311839751908 
-0.026337078640193697 
0.025809204507844553 
0.0193722369858204 
0.0064676347318972415 
-0.006467634731900762 
-0.01937223698582387 
-0.025809204507847978 
0.02525696292006085 
0.01894422519202335 
0.006315743731992049 
-0.006315743731995538 
-0.018944225192026817 
-0.025256962920064303 
0.024696727158741095 
0.018522402377658728 
0.006174038798287308 
-0.006174038798290782 
-0.018522402377662193 
-0.024696727158744564 
0.02413544692549193 
0.01810145910012924 
0.006033735637382394 
-0.006033735637385851 
-0.01810145910013268 
-0.024135446925495407 
0.023574103544386448 
0.017680542681927695 
0.00589349090973359 
-0.005893490909737046 
-0.017680542681931144 
-0.023574103544389956 
0.0230127980148842 
0.01725959235934226 
0.005753193351899287 
-0.005753193351902736 
-0.01725959235934573 
-0.023012798014887734 
0.02245150669941772 
0.01683862958886902 
0.005612876239159293 
-0.005612876239162728 
-0.016838629588872462 
-0.022451506699421205 
0.0218902186584047 
0.01641766412972626 
0.005472554800523068 
-0.005472554800526474 
-0.01641766412972974 
-0.021890218658408213 
0.021328931035859228 
0.015996698343862487 
0.005332232825932046 
-0.005332232825935407 
-0.015996698343865995 
-0.021328931035862836 
0.020767643406951374 
0.01557573257157253 
0.005191910868096064 
-0.0051919108680992644 
-0.015575732571576028 
-0.020767643406955087 
0.02020635575574985 
0.015154766819257065 
0.005051588941381484 
-0.005051588941384339 
-0.0151547668192606 
-0.020206355755753837 
0.019645068097351483 
0.014733801073080236 
0.004911267024404008 
-0.004911267024406364 
-0.014733801073083946 
-0.01964506809735614 
0.01908378043753517 
0.014312835328060323 
0.004770945109292345 
-0.004770945109294285 
-0.014312835328064204 
-0.019083780437540623 
0.018522492777575235 
0.01389186958314724 
0.004630623194358731 
-0.004630623194361735 
-0.013891869583150652 
-0.018522492777579613 
0.017961205117635444 
0.013470903838217493 
0.004490301279396407 
-0.004490301279405724 
-0.01347090383821831 
-0.017961205117631905 
0.01739991745771686 
0.013049938093279288 
0.004349979364410185 
-0.004349979364439274 
-0.013049938093272645 
-0.01739991745768809 
0.01683862979781974 
0.012628972348342803 
0.004209657449405749 
-0.004209657449481793 
-0.012628972348319632 
-0.016838629797730046 
0.016277342137950915 
0.012208006603411972 
0.00406933553438034 
-0.0040693355345436215 
-0.012208006603359885 
-0.01627734213774487 
0.015716054478100577 
0.01178704085848247 
0.003929013619344632 
-0.003929013619615762 
-0.011787040858398962 
-0.015716054477741496 
0.015154766818180818 
0.011366075113525715 
0.0037886917043712808 
-0.0037886917046258154 
-0.011366075113465556 
-0.015154766817807532 
0.014593479157886509 
0.01094510936845192 
0.003648369789702149 
-0.003648369789331548 
-0.010945109368649147 
-0.01459347915824823 
0.014032191496441809 
0.010524143623048742 
0.0035080478759375432 
-0.003508047873132732 
-0.01052414362416214 
-0.014032191499839404 
0.013470903832301045 
0.010103177876924361 
0.0033677259642423065 
-0.0033677259548646034 
-0.010103177880396497 
-0.013470903844126848 
0.012909616163250136 
0.009682212129598291 
0.0032274040562044644 
-0.003227404032939259 
-0.00968221213783301 
-0.012909616193325018 
0.012348328488368806 
0.00926124638116237 
0.0030870821521917636 
-0.003087082106988965 
-0.009261246396379543 
-0.012348328548353563 
0.011787040815412334 
0.00884028063447584 
0.00294676024546673 
-0.002946760183750766 
-0.008840280653176292 
-0.011787040901456939 
0.011225753180394312 
0.008419314900586146 
0.0028064383069760206 
-0.002806438292278189 
-0.008419314897176509 
-0.01122575321662258 
0.010664465688296322 
0.007998349209207783 
0.0026661162545146056 
-0.002666116514776821 
-0.007998349098666004 
-0.0106644653888684 
0.010103178575748158 
0.007577383622897913 
0.002525793907211663 
-0.0025257950321199226 
-0.007577383195088793 
-0.010103177181562083 
0.009541892252868622 
0.007156418239930451 
0.0023854709617400047 
-0.0023854741476438904 
-0.007156417088176987 
-0.009541888184578465 
0.008980607147404902 
0.00673545313248769 
0.0022451471320561055 
-0.002245154147411231 
-0.006735450705761061 
-0.00898059797015793 
0.008419322860062788 
0.006314488082693472 
0.002104822835644661 
-0.002104834613871208 
-0.0063144842656786175 
-0.008419306937649654 
0.007858035567674697 
0.005893521838672488 
0.001964501235413478 
-0.001964512383223763 
-0.005893519019253123 
-0.007858018910902046 
0.007296731930843407 
0.005472550483045369 
0.0018241929152574994 
-0.0018241768665115737 
-0.0054725588806811545 
-0.0072967472330714945 
0.006735377987634846 
0.0050515647083688945 
0.0016839241521778923 
-0.001683801768876633 
-0.005051613145997359 
-0.006735525878988612 
0.006173905912861242 
0.0046305472984185594 
0.0015437460603115664 
-0.0015433359552697833 
-0.004630699016744046 
-0.00617442268630127 
0.00561221815496365 
0.00420947710043256 
0.0014037287044727253 
-0.0014027095865747543 
-0.004209837781956297 
-0.005613535027719105 
0.005050272071845729 
0.0037883584655508925 
0.0012638903714608809 
-0.0012619065017195244 
-0.0037890264073858326 
-0.005052903927666911 
0.004488400946670032 
0.0033673187796585146 
0.0011239436363450607 
-0.0011212245288250758 
-0.003368144109681721 
-0.004492188501670166 
0.003928162302877807 
0.002946852376587792 
0.0009826357363488959 
-0.0009819483102797768 
-0.0029467168877891957 
-0.003929808132618825 
0.0033741702814331686 
0.0025282519081530454 
0.0008363699232666422 
-0.0008476713004586 
-0.0025234550639851 
-0.0033611612153926383 
0.0028369462587235356 
0.002114101852097521 
0.0006769100462114018 
-0.0007260060011711801 
-0.0020953831755746903 
-0.0027761917018557236 
0.002336887265194251 
0.0017068838273379499 
0.0004884799354867451 
-0.0006276190791915516 
-0.0016569235680846265 
-0.002158529496294308 
0.001897142751647342 
0.001303969935472567 
0.0002491351379884772 
-0.0005548413924501895 
-0.001197706513812634 
-0.0014982570860457263 
0.001536727442109549 
0.000866544312985633 
-4.947979276758211e-05 
-0.00045032547807502153 
-0.0007188839282877195 
-0.000832437669822277 
0.0009339274149006433 
0.00039137925729336985 
-0.0001796387982287184 
-0.00024261588070710022 
-0.00028732490922197797 
-0.00029752675317328865 
0.000489222772680559 
0.0001523998996369858 
-0.0001465319489186956 
-0.00010860839910813486 
-9.807943742166335e-05 
-8.758300105786088e-05 
</DataArray>
<DataArray type="Float64" Name="Nodal_sigma_yy" NumberOfComponents="1" format="ascii" >
0.006852949322696818 
0.005283383268278208 
0.0018569086069295088 
-0.0018569086069306373 
-0.0052833832682792695 
-0.006852949322697843 
0.0032379391085710207 
0.002728048706267606 
0.0011090791519818889 
-0.0011090791519826797 
-0.002728048706268249 
-0.003237939108571551 
-0.00018971937620669305 
3.553928057765162e-05 
0.0001303989686809208 
-0.00013039896868119227 
-3.553928057778465e-05 
0.00018971937620666053 
-2.382852278366059e-05 
-7.867504599963992e-05 
-6.67607846078219e-05 
6.676078460778824e-05 
7.867504599962669e-05 
2.382852278365235e-05 
-2.5894746909334992e-05 
-3.4101315155541886e-05 
-2.1153941700863006e-05 
2.11539417008887e-05 
3.410131515554828e-05 
2.589474690934193e-05 
-3.910565872401652e-06 
-7.195611629377233e-06 
-5.240328693165158e-06 
5.2403286931881974e-06 
7.195611629384063e-06 
3.910565872414229e-06 
-6.468660500229088e-07 
-9.668325997388592e-07 
-6.433995747304134e-07 
6.433995747414181e-07 
9.668325997482918e-07 
6.4686605000773e-07 
3.7019518449830924e-08 
2.1367534307030478e-08 
2.857775061054389e-09 
-2.8577750560128488e-09 
-2.136753428849062e-08 
-3.70195185070768e-08 
3.237668742264374e-08 
5.0149056212605084e-08 
3.396071247309396e-08 
-3.396071247396132e-08 
-5.014905621433981e-08 
-3.237668753713549e-08 
1.0742940233579579e-08 
1.632815318510731e-08 
1.095668304332666e-08 
-1.0956683052542378e-08 
-1.6328153212646045e-08 
-1.0742940370189052e-08 
1.936021998966142e-09 
3.166401076233616e-09 
2.1983900711126936e-09 
-2.1983900340329793e-09 
-3.1664010671263176e-09 
-1.9360220774623793e-09 
1.8579302549573407e-10 
3.200973417534156e-10 
2.2720084960538983e-10 
-2.2720079864788773e-10 
-3.200974035529394e-10 
-1.8579316861042083e-10 
-3.119001931728427e-11 
-3.9747037909251826e-11 
-2.4152038821580873e-11 
2.4151987538818115e-11 
3.9746914527044597e-11 
3.11898328345106e-11 
-1.8692845448614603e-11 
-2.832308432926256e-11 
-1.897672620985221e-11 
1.897653617631643e-11 
2.832299011209377e-11 
1.8692778661760778e-11 
-4.976966321706966e-12 
-7.787410256573923e-12 
-5.299000672390371e-12 
5.298715933794822e-12 
7.787319508852086e-12 
4.977059996774669e-12 
-8.081803455628478e-13 
-1.3231047117298611e-12 
-9.1894261568682e-13 
9.190436362242413e-13 
1.3231471040348053e-12 
8.083507821443625e-13 
-4.3947918221265425e-14 
-8.621965988386826e-14 
-6.347346422335559e-14 
6.589646634348051e-14 
8.723501521840094e-14 
4.4221570849600766e-14 
2.3729282427886744e-14 
3.451947928889698e-14 
2.550216982033504e-14 
-1.6065165690803962e-14 
-3.0064384141936795e-14 
-2.2303773411502803e-14 
1.2308730423793435e-14 
2.1371684803817015e-14 
2.268648322586303e-14 
2.6575828126693124e-15 
-8.474015759929454e-15 
-7.324869877312068e-15 
7.906435922633293e-15 
1.7621646329624152e-14 
2.915456233636843e-14 
2.4340921530967286e-14 
1.0599919379739031e-14 
3.490263633665336e-15 
9.903970005220586e-15 
2.3501816812099285e-14 
4.278715782287529e-14 
4.2073969633814323e-14 
2.2452525949567814e-14 
9.231764658279573e-15 
9.888791174805789e-15 
1.978571386590522e-14 
3.208872512323879e-14 
3.229336828329543e-14 
1.9916414437798347e-14 
9.740905998478766e-15 
-9.987670412936467e-15 
-3.868585139732428e-14 
-9.001953100041399e-14 
-8.965122752242066e-14 
-3.84188124022411e-14 
-1.0190199378756759e-14 
-9.196463035543445e-14 
-2.5815824087824235e-13 
-5.28991387911508e-13 
-5.289652044290424e-13 
-2.581337921192528e-13 
-9.19680998023864e-14 
-3.183659932903815e-13 
-8.410543854246721e-13 
-1.6670497854321883e-12 
-1.667004682621813e-12 
-8.410320508599189e-13 
-3.184115297816259e-13 
-8.076889851382774e-13 
-2.053487913565577e-12 
-3.979298471680839e-12 
-3.9790054118336166e-12 
-2.0531348973382157e-12 
-8.075690723780005e-13 
-1.6064617084504684e-12 
-3.920594480576883e-12 
-7.405943452899397e-12 
-7.405554712210452e-12 
-3.920051783179446e-12 
-1.6061537950334825e-12 
-2.293114266180285e-12 
-5.169028453964192e-12 
-9.244795209852226e-12 
-9.244679146009661e-12 
-5.169118713795051e-12 
-2.293526913527133e-12 
-9.269772449638225e-13 
-5.367481632767568e-13 
1.0824500069070778e-12 
1.0820432142519612e-12 
-5.375227173087804e-13 
-9.277127677176367e-13 
8.136087723681351e-12 
2.459423528548832e-11 
5.2218731820693164e-11 
5.221838639388101e-11 
2.459387229460097e-11 
8.136052595530963e-12 
3.758703136062802e-11 
1.0189096365676581e-10 
2.0483053594184605e-10 
2.048307141304731e-10 
1.0189111137931181e-10 
3.7586970428465927e-11 
1.093496718954784e-10 
2.83287431978186e-10 
5.551137057010071e-10 
5.551152191388196e-10 
2.832891619311724e-10 
1.0935010492582609e-10 
2.460818571484169e-10 
6.1413953637195e-10 
1.17666865944707e-09 
1.1766754159781684e-09 
6.14149505610926e-10 
2.460882825641719e-10 
4.255983326179047e-10 
1.008383538237019e-09 
1.868116729586639e-09 
1.868137010564057e-09 
1.008414469007117e-09 
4.2561963220326404e-10 
4.412215389056062e-10 
8.844253318531121e-10 
1.4369451572162771e-09 
1.4369466222444627e-09 
8.844325136625128e-10 
4.412329724680364e-10 
-4.2503735969180723e-10 
-1.6557949096844462e-09 
-3.879909629851946e-09 
-3.880337193462547e-09 
-1.6564027114978827e-09 
-4.2539783609747694e-10 
-3.996072686510491e-09 
-1.124998746647476e-08 
-2.30733991533964e-08 
-2.3076539507448503e-08 
-1.1254570994015563e-08 
-3.998959033487889e-09 
-1.3902348514256181e-08 
-3.6761542565822087e-08 
-7.289535041081865e-08 
-7.290909656596596e-08 
-3.6781892653485254e-08 
-1.3915556379287888e-08 
-3.533503186835957e-08 
-8.990939164520411e-08 
-1.743152280308548e-07 
-1.743478180223513e-07 
-8.995955096528807e-08 
-3.537017052553451e-08 
-7.050071014317889e-08 
-1.7209953130184496e-07 
-3.251625703265933e-07 
-3.251069906054022e-07 
-1.7202753651950325e-07 
-7.046788002087762e-08 
-1.013930717750711e-07 
-2.2862339987313055e-07 
-4.0832825584996503e-07 
-4.0721285333758755e-07 
-2.2703165861870248e-07 
-1.0044039429096992e-07 
-4.5634569326071656e-08 
-3.240647461580934e-08 
3.642784368275141e-08 
4.327590755509291e-08 
-2.229635331362791e-08 
-3.911045446639179e-08 
3.4215282847455727e-07 
1.0495169197054005e-06 
2.258328530918715e-06 
2.2848960152111174e-06 
1.0886249186408016e-06 
3.672338577605542e-07 
1.6051045118386457e-06 
4.415275649600507e-06 
8.925753312443962e-06 
8.968050118785305e-06 
4.486267348719237e-06 
1.6624942973934203e-06 
4.94140543800647e-06 
1.2571536739802776e-05 
2.4411910748948497e-05 
2.4180122039938958e-05 
1.2228525024004353e-05 
4.718959424428702e-06 
1.1685837993163624e-05 
2.890601927755717e-05 
5.2963335340795145e-05 
5.014157480819817e-05 
2.502724845462916e-05 
9.571817412501557e-06 
2.807376243674952e-05 
5.5530550776254986e-05 
8.893308660572538e-05 
7.48441929318274e-05 
3.351915556795301e-05 
1.2228759367941499e-05 
3.357334209622148e-05 
7.646662786248899e-05 
8.799587040682661e-05 
3.435177027662558e-05 
6.465770656743966e-06 
8.598279451334863e-07 
0.0001244720522634896 
-4.222597757614797e-06 
-0.00018385613078024903 
-0.00019677207602245128 
-9.852718568291918e-05 
-3.830523310271468e-05 
-0.0014859625913132648 
-0.001411547959113522 
-0.0011069094469452255 
-0.0006357177003567904 
-0.00023374618228389824 
-7.274253083088752e-05 
-0.003193835200601955 
-0.0027332049397889185 
-0.001777063649509031 
-0.0008930955441413453 
-0.00029196163673738345 
-7.928480523425652e-05 
</DataArray>
<DataArray type="Float64" Name="Nodal_sigma_xy" NumberOfComponents="1" format="ascii" >
-0.0023252318812372495 
-0.0010360730884065358 
0.0006986890290212546 
0.0006986890290210929 
-0.001036073088407021 
-0.0023252318812378965 
-0.0011802991645495395 
-0.0007736841939306638 
-0.00013616622379866817 
-0.00013616622379878428 
-0.0007736841939309537 
-0.0011802991645498873 
-9.672632569198144e-05 
-0.0004888393015027822 
-0.0009627975356555862 
-0.000962797535655616 
-0.0004888393015028135 
-9.672632569198423e-05 
-0.0002160514541908579 
-0.0004895610938537686 
-0.0009024131790552276 
-0.0009024131790552128 
-0.0004895610938537324 
-0.00021605145419081507 
-0.00029302652878030583 
-0.0005195361653375582 
-0.0008339505702767039 
-0.0008339505702766864 
-0.0005195361653375257 
-0.0002930265287802758 
-0.00031547241575667444 
-0.0005279253358722968 
-0.0008143384562537572 
-0.0008143384562537495 
-0.0005279253358722836 
-0.00031547241575666387 
-0.0003192325068929713 
-0.0005296988149004031 
-0.0008106849316574989 
-0.0008106849316574983 
-0.0005296988149003979 
-0.00031923250689296155 
-0.00031950009436433494 
-0.0005298749730169576 
-0.0008103749798052685 
-0.0008103749798052653 
-0.0005298749730169437 
-0.0003195000943643134 
-0.00031941021290735197 
-0.0005298583846152667 
-0.0008104365089354137 
-0.0008104365089354151 
-0.0005298583846152626 
-0.0003194102129073409 
-0.0003193679168129024 
-0.0005298438289747162 
-0.0008104722126231298 
-0.0008104722126231383 
-0.000529843828974726 
-0.000319367916812905 
-0.0003193576288354657 
-0.0005298397788103032 
-0.0008104814067762604 
-0.0008104814067762689 
-0.0005298397788103144 
-0.000319357628835471 
-0.00031935611978669393 
-0.0005298390673341402 
-0.0008104828727768301 
-0.0008104828727768301 
-0.000529839067334127 
-0.0003193561197866679 
-0.0003193560846834923 
-0.0005298390168452991 
-0.0008104829408173842 
-0.0008104829408173386 
-0.0005298390168452181 
-0.00031935608468342187 
-0.0003193561434144442 
-0.0005298390325899349 
-0.0008104828957073429 
-0.000810482895707215 
-0.0005298390325897223 
-0.00031935614341427473 
-0.0003193561649670582 
-0.0005298390403414334 
-0.000810482877179582 
-0.0008104828771793237 
-0.0005298390403409585 