<?xml version="1.0"?>
<VTKFile type="UnstructuredGrid" version="0.1" byte_order="LittleEndian" compressor="vtkZLibDataCompressor">
<UnstructuredGrid>
<Piece NumberOfPoints="306" NumberOfCells="250">
<PointData>
<DataArray type="Float64" Name="displacement" NumberOfComponents="3" format="ascii" >
0.0 0.0  0.
0.0 0.0  0.
0.0 0.0  0.
0.0 0.0  0.
0.0 0.0  0.
0.0 0.0  0.
0.12656409287926348 -0.08451049069974277  0.
0.06581700487769461 -0.029840942937240864  0.
0.021665734681912154 -0.008475858152541286  0.
-0.02166573468191706 -0.00847585815254213  0.
-0.06581700487769963 -0.02984094293724362  0.
-0.12656409287927003 -0.08451049069974845  0.
0.25455433723021365 -0.16691851555435952  0.
0.1473800121996683 -0.11616964562610502  0.
0.04764488719678522 -0.08879235809113398  0.
-0.04764488719679601 -0.08879235809113536  0.
-0.14738001219967953 -0.1161696456261093  0.
-0.25455433723022586 -0.16691851555436665  0.
0.381594994696147 -0.3001028750981555  0.
0.2257175469745919 -0.24968147277959674  0.
0.07453915135665204 -0.22405301712895498  0.
-0.07453915135666919 -0.22405301712895656  0.
-0.22571754697460938 -0.24968147277960143  0.
-0.3815949946961649 -0.3001028750981631  0.
0.5072948166960408 -0.48339782028934525  0.
0.3016163040589436 -0.43425948638307765  0.
0.10003094895914834 -0.40956243662600683  0.
-0.10003094895917188 -0.40956243662600844  0.
-0.3016163040589673 -0.43425948638308237  0.
-0.5072948166960647 -0.48339782028935296  0.
0.6305297155618357 -0.7167425485007745  0.
0.3756219133589004 -0.6686945510626039  0.
0.12475136915861325 -0.6446572739697412  0.
-0.12475136915864309 -0.6446572739697427  0.
-0.37562191335893036 -0.6686945510626084  0.
-0.6305297155618657 -0.7167425485007822  0.
0.7510936105136444 -0.9989008926476068  0.
0.4479595743352106 -0.9519299487620156  0.
0.14886999830398517 -0.928444367234693  0.
-0.14886999830402126 -0.9284443672346945  0.
-0.44795957433524675 -0.9519299487620202  0.
-0.7510936105136806 -0.9989008926476144  0.
0.8689471488034116 -1.3287566671198254  0.
0.5186684631152981 -1.2828537394759245  0.
0.17243972259136103 -1.2599030689432458  0.
-0.17243972259140328 -1.2599030689432473  0.
-0.5186684631153404 -1.2828537394759292  0.
-0.8689471488034538 -1.328756667119833  0.
0.9840896750097309 -1.7052127790434362  0.
0.5877529053012229 -1.660377323980156  0.
0.19546756717397426 -1.637959840383826  0.
-0.19546756717402258 -1.6379598403838276  0.
-0.5877529053012713 -1.6603773239801605  0.
-0.9840896750097794 -1.7052127790434435  0.
1.0965223724635076 -2.1271838232938665  0.
0.6552123100651288 -2.0834158110218164  0.
0.2179539369107864 -2.0615318549536186  0.
-0.21795393691084086 -2.06153185495362  0.
-0.6552123100651833 -2.083415811021821  0.
-1.0965223724635622 -2.127183823293874  0.
1.2062457350356228 -2.5935859671740076  0.
0.7210463049389493 -2.5508854505360214  0.
0.2398985814851661 -2.5295351972489595  0.
-0.2398985814852267 -2.5295351972489613  0.
-0.72104630493901 -2.5508854505360263  0.
-1.2062457350356837 -2.593585967174015  0.
1.3132598668902127 -3.1033355800661684  0.
0.7852547863205556 -3.061702573151049  0.
0.26130140645249345 -3.040886069150825  0.
-0.2613014064525603 -3.040886069150827  0.
-0.7852547863206225 -3.0617025731510537  0.
-1.3132598668902795 -3.1033355800661764  0.
1.417564781596683 -3.655348996931462  0.
0.8478377369704 -3.614783502803779  0.
0.2821623901986442 -3.5945007553089527  0.
-0.28216239019871686 -3.5945007553089536  0.
-0.8478377369704732 -3.6147835028037827  0.
-1.417564781596756 -3.655348996931468  0.
1.5191604787410662 -4.248542535806381  0.
0.9087951557718086 -4.209044554746766  0.
0.30248152996988015 -4.189295564097443  0.
-0.3024815299699577 -4.189295564097444  0.
-0.9087951557718876 -4.209044554746768  0.
-1.5191604787411463 -4.248542535806386  0.
1.6180469575736407 -4.881832509994714  0.
0.9681270431610793 -4.8434020419702275  0.
0.3222588258147737 -4.824186807937236  0.
-0.32225882581485465 -4.824186807937236  0.
-0.9681270431611646 -4.843402041970228  0.
-1.6180469575737295 -4.8818325099947195  0.
1.7142242178556544 -5.554135232064078  0.
1.0258333993367734 -5.516772277048394  0.
0.34149427788191133 -5.498090799539106  0.
-0.34149427788199366 -5.4980907995391055  0.
-1.025833399336865 -5.516772277048394  0.
-1.7142242178557563 -5.554135232064083  0.
1.8076922595414107 -6.26436701454107  0.
1.0819142243462483 -6.2280715725270674  0.
0.3601878862190482 -6.209923851520538  0.
-0.36018788621913106 -6.209923851520542  0.
-1.0819142243463455 -6.228071572527075  0.
-1.8076922595415321 -6.264367014541085  0.
1.8984510826264505 -7.011444169974309  0.
1.1363695181963018 -6.976216240960757  0.
0.37833965083554943 -6.958602276454218  0.
-0.3783396508356418 -6.958602276454235  0.
-1.1363695181964042 -6.976216240960796  0.
-1.898451082626598 -7.01144416997436  0.
1.986500687111409 -7.794283010921577  0.
1.1891992808870397 -7.760122594908393  0.
0.39594957173234774 -7.743042386901889  0.
-0.3959495717324878 -7.743042386901946  0.
-1.1891992808871468 -7.7601225949085215  0.
-1.9865006871115702 -7.794283010921719  0.
2.0718410729967394 -8.611799849942773  0.
1.2404035124181811 -8.578706946929978  0.
0.41301764890929465 -8.56216049542368  0.
-0.41301764890959064 -8.562160495423823  0.
-1.2404035124182908 -8.578706946930303  0.
-2.071841072996835 -8.611799849943097  0.
2.154472240282643 -9.462910999598105  0.
1.2899822127896254 -9.430885609585687  0.
0.42954388236624164 -9.414872914579677  0.
-0.4295438823669334 -9.414872914579968  0.
-1.2899822127897358 -9.430885609586342  0.
-2.1544722402824164 -9.462910999598693  0.
2.234394188969323 -10.346532772447896  0.
1.3379353820013504 -10.315574895435795  0.
0.4455282721030836 -10.300095956930074  0.
-0.4455282721045747 -10.300095956930505  0.
-1.3379353820014617 -10.315574895436756  0.
-2.2343941889681505 -10.346532772448597  0.
2.311606919057061 -11.261581481052767  0.
1.384263020053347 -11.231691117040867  0.
0.4609708181198261 -11.216745935035219  0.
-0.46097081812250223 -11.216745935035448  0.
-1.3842630200534742 -11.231691117041358  0.
-2.3116069190537574 -11.261581481052572  0.
2.386110430546039 -12.206973437974051  0.
1.4289651269455952 -12.178150586962197  0.
0.4758715204169293 -12.163739161455789  0.
-0.4758715204202547 -12.163739161454483  0.
-1.428965126945792 -12.178150586959218  0.
-2.386110430539054 -12.206973437969651  0.
2.4579047234355382 -13.181624955774335  0.
1.472041702678052 -13.153869617762528  0.
0.49023037899620203 -13.139991948753108  0.
-0.49023037899602306 -13.139991948746667  0.
-1.4720417026784591 -13.153869617747976  0.
-2.457904723424763 -13.181624955757625  0.
2.5269897977217077 -14.18445234701752  0.
1.513492747250643 -14.15776452200653  0.
0.5040473938625533 -14.144420609489375  0.
-0.5040473938448999 -14.144420609470176  0.
-1.513492747251551 -14.157764521963335  0.
-2.5269897977147306 -14.184452346972977  0.
2.593365653392775 -15.21437192426633  0.
1.553318260663296 -15.188751612259303  0.
0.5173225650263924 -15.17594145622699  0.
-0.517322564956475 -15.17594145618297  0.
-1.5533182606651401 -15.188751612160559  0.
-2.5933656534207317 -15.214371924173339  0.
2.6570322904212094 -16.27030000007199  0.
1.5915182429160994 -16.24574720107759  0.
0.5300558925042653 -16.233470801524703  0.
-0.5300558923142027 -16.233470801446686  0.
-1.5915182429191375 -16.24574720090329  0.
-2.657032290570298 -16.270299999927865  0.
2.7179897087570217 -17.35115288694542  0.
1.6280926940097904 -17.32766760098226  0.
0.5422473763089588 -17.315924957925354  0.
-0.5422473759052961 -17.315924957838842  0.
-1.6280926940128064 -17.327667600791013  0.
-2.7179897092134175 -17.351152886846005  0.
2.7762379083412796 -18.455846897294627  0.
1.6630416139468798 -18.43342912439289  0.
0.5538970164063467 -18.422220237926755  0.
-0.553897015763881 -18.422220237982014  0.
-1.6630416139436364 -18.43342912452454  0.
-2.776237909409025 -18.45584689764013  0.
2.831776889195276 -19.583298343321626  0.
1.6963650027336699 -19.561948083506575  0.
0.5650048125927157 -19.551272953927466  0.
-0.5650048120936713 -19.551272954598005  0.
-1.696365002705324 -19.561948085027147  0.
-2.831776891135826 -19.583298345228595  0.
2.8846066517098996 -20.73242353693098  0.
1.728062860382561 -20.712140790148183  0.
0.5755707642237935 -20.701999418159293  0.
-0.5755707655389417 -20.70199942057539  0.
-1.7280628602854726 -20.71214079559434  0.
-2.884606654002935 -20.732423542827217  0.
2.934727197350131 -21.902138789894998  0.
1.7581351869108983 -21.88292355579431  0.
0.5855948697578314 -21.87331594269571  0.
-0.585594877641453 -21.87331594896103  0.
-1.758135186666746 -21.88292356986989  0.
-2.9347271965453623 -21.902138803784066  0.
2.9821385299960776 -23.09136041499283  0.
1.7865819823244073 -23.073212692445022  0.
0.5950771263170637 -23.064138839835596  0.
-0.5950771512790319 -23.064138852576367  0.
-1.7865819818434832 -23.073212720974134  0.
-2.9821385148829362 -23.091360440440397  0.
3.0268406577001365 -24.299004729745622  0.
1.8134032465563825 -24.28192451601265  0.
0.6040175302857358 -24.273384423605584  0.
-0.6040175900675793 -24.273384442515017  0.
-1.8134032458826221 -24.28192455811506  0.
-3.026840600962959 -24.29900476039538  0.
3.0688335928259267 -25.52398806557141  0.
1.8385989793082285 -25.507975355465522  0.
0.6124160819901032 -25.499969013828437  0.
-0.6124161936806215 -25.499969024075106  0.
-1.838598979083067 -25.507975377444037  0.
-3.068833442421057 -25.523988057350095  0.
3.1081173435133356 -26.765226785342357  0.
1.8621691797205266 -26.750281572131843  0.
0.6202728014611864 -26.742808944742553  0.
-0.6202729420824213 -26.74280888814529  0.
-1.8621691823015387 -26.750281442749557  0.
-3.1081170311182533 -26.765226593545435  0.
3.144691878567689 -28.0216373067408  0.
1.8841138458692037 -28.00775959016077  0.
0.627587767725921 -28.000820578674944  0.
-0.627587756216405 -28.000820297556064  0.
-1.884113857435775 -28.007758954990415  0.
-3.144691398272 -28.021636576392353  0.
3.178557030179581 -29.292136105534336  0.
1.904432974426475 -29.279325919335832  0.
0.6343611955460088 -29.272920316538205  0.
-0.6343604212053917 -29.272919476643256  0.
-1.9044330076798939 -29.279324029490674  0.
-3.17855671183872 -29.29213415520529  0.
3.2097122835987766 -30.57563960785951  0.
1.9231265619491753 -30.563897089482314  0.
0.6405935413274453 -30.558024569133835  0.
-0.6405904804421297 -30.558022639858873  0.
-1.9231266360654673 -30.563892761727434  0.
-3.20971348714687 -30.575635529255063  0.
3.238156433149327 -31.871063740360835  0.
1.9401946121531306 -31.86038926775585  0.
0.6462855331693457 -31.855049587146443  0.
-0.6462772068012301 -31.85504615988974  0.
-1.9401947387613645 -31.860381611201646  0.
-3.23816293096574 -31.871057400032008  0.
3.263887280699829 -33.17732267240667  0.
1.9556371612361603 -33.16771705906775  0.
0.6514377457353561 -33.16291091907045  0.
-0.6514200372655634 -33.162907097580415  0.
-1.9556372874382013 -33.16770860586582  0.
-3.2639072367592994 -33.17731823837882  0.
3.2869021998124857 -34.49332609188052  0.
1.9694543483420692 -34.48479063649015  0.
0.6560487364593107 -34.48052211895874  0.
-0.6560204765466957 -34.4805244478606  0.
-1.9694542036463114 -34.48479621797403  0.
-3.2869489751698207 -34.49334103194816  0.
3.30720189696293 -35.81797459046957  0.
1.9816465861265793 -35.810510440348665  0.
0.6601097269194895 -35.806792282070006  0.
-0.6600875180671281 -35.806821514959914  0.
-1.9816453423271079 -35.81057663648414  0.
-3.30728712131857 -35.81805782146442  0.
3.3248029510986576 -37.150155461904454  0.
1.992214733483139 -37.14376012201752  0.
0.663592627551919 -37.140623497685645  0.
-0.6636493918998703 -37.140728891779794  0.
-1.992210538204137 -37.143998265993964  0.
-3.32490405667122 -37.15041316885257  0.
3.339768339738908 -38.48874561854889  0.
2.00115908550288 -38.483407434241336  0.
0.6664284164907749 -38.4809123501613  0.
-0.6667721350848219 -38.481187404176225  0.
-2.0011485129782733 -38.48402290693526  0.
-3.339735450446425 -38.48935517408888  0.
3.352278739311885 -39.83266136740863  0.
2.0084687594820427 -39.828331219890245  0.
0.6684766833703911 -39.82658633523358  0.
-0.6695666331467177 -39.82713930363132  0.
-2.0084504158029097 -39.829585726673166  0.
-3.3516173143396726 -39.83377428923764  0.
3.3627397463087902 -41.18095291695398  0.
2.0140690425061405 -41.177606912587905  0.
0.6695203323342895 -41.17668109104026  0.
-0.6721291968300069 -41.17752572873688  0.
-2.014053148559921 -41.17943314809198  0.
-3.360263917366442 -41.18233386696163  0.
3.372141649640971 -42.53363821545717  0.
2.0176531976328356 -42.53074623339943  0.
0.6693629854994549 -42.530778902383204  0.
-0.6741664005123797 -42.531028197906345  0.
-2.017799716635922 -42.53177859616102  0.
-3.3654162341495732 -42.5332000171382  0.
3.3813888126284346 -43.891290860497776  0.
2.0182089248785333 -43.89065258341746  0.
0.669424573699046 -43.887966225290626  0.
-0.6748086574998128 -43.88524309766211  0.
-2.0195157565890693 -43.883987994869905  0.
-3.3673675087106365 -43.88398563444706  0.
3.3929420441194607 -45.28223715961061  0.
2.0225826059672656 -45.25634896769864  0.
0.6722710381403139 -45.24218604269595  0.
-0.6736193714588855 -45.23542515866192  0.
-2.0196240158209653 -45.233196006757744  0.
-3.3676340577760278 -45.2329192094205  0.
</DataArray>
<DataArray type="Float64" Name="Nodal_sigma_xx" NumberOfComponents="1" format="ascii" >
0.06128614812889003 
0.04489643472510005 
0.014253360660654206 
-0.014253360660657534 
-0.044896434725103594 
-0.06128614812889378 
0.059837180870866216 
0.04478082254390028 
0.01486223210846631 
-0.014862232108469764 
-0.04478082254390379 
-0.05983718087086977 
0.05800248776615302 
0.04406394764527429 
0.015062703762196882 
-0.015062703762200473 
-0.04406394764527777 
-0.05800248776615638 
0.057063670387045996 
0.04295267565276398 
0.014420840459240088 
-0.014420840459243656 
-0.042952675652767454 
-0.05706367038704939 
0.05591994310029875 
0.041973180135921356 
0.014013208585771101 
-0.014013208585774631 
-0.04197318013592485 
-0.0559199431003022 
0.054723419660102635 
0.04104582124936252 
0.013684111419310318 
-0.013684111419313834 
-0.04104582124936601 
-0.05472341966010613 
0.053509575510578444 
0.040131871818240614 
0.013377084062950514 
-0.013377084062953994 
-0.04013187181824406 
-0.05350957551058189 
0.05229346833854045 
0.03921982805026144 
0.013073093880990367 
-0.013073093880993761 
-0.039219828050264895 
-0.05229346833854396 
0.051077224346147185 
0.03830784247749289 
0.012769230304418431 
-0.012769230304421855 
-0.03830784247749636 
-0.051077224346150724 
0.04986106236556098 
0.0373957834452259 
0.012465252262444531 
-0.012465252262448044 
-0.03739578344522941 
-0.049861062365564486 
0.04864493118205211 
0.03648369744253523 
0.012161231851508351 
-0.012161231851511795 
-0.03648369744253874 
-0.048644931182055554 
0.04742880709319245 
0.0355716056143941 
0.011857202067797081 
-0.01185720206780045 
-0.03557160561439761 
-0.047428807093195906 
0.04621268391101241 
0.03465951307835736 
0.01155317112285039 
-0.011553171122853626 
-0.03465951307836093 
-0.04621268391101614 
0.044996560715047214 
0.033747420571730365 
0.011249140214206135 
-0.011249140214208992 
-0.033747420571733966 
-0.044996560715051204 
0.04378043747077917 
0.03283532810838154 
0.010945109372991512 
-0.010945109372993828 
-0.03283532810838531 
-0.043780437470783855 
0.04256431421091783 
0.031923235658333146 
0.010641078552874106 
-0.010641078552875285 
-0.0319232356583372 
-0.042564314210924076 
0.041348190947984226 
0.031011143210791306 
0.010337047736799308 
-0.01033704773679953 
-0.031011143210795605 
-0.041348190947991914 
0.04013206768473945 
0.03009905076348095 
0.010033016921110246 
-0.01003301692111294 
-0.03009905076348425 
-0.04013206768474458 
0.03891594442153812 
0.029186958316134406 
0.009728986105359072 
-0.009728986105375311 
-0.029186958316132317 
-0.038915944421526565 
0.03769982115838272 
0.028274865868769306 
0.009424955289555904 
-0.009424955289614977 
-0.028274865868751404 
-0.03769982115831694 
0.03648369789527388 
0.027362773421408058 
0.00912092447371333 
-0.009120924473874005 
-0.027362773421354028 
-0.03648369789507563 
0.03526757463222621 
0.026450680974059226 
0.008816893657825571 
-0.008816893658175094 
-0.026450680973942296 
-0.0352675746317755 
0.03405145136921851 
0.025538588526713056 
0.00851286284191498 
-0.00851286284249884 
-0.025538588526528058 
-0.034051451368436084 
0.03283532810606081 
0.024626496079307773 
0.0082088320261393 
-0.008208832026687736 
-0.024626496079173353 
-0.03283532810524738 
0.03161920484209096 
0.023714403631648753 
0.007904801211023228 
-0.007904801210217248 
-0.02371440363207239 
-0.031619204842870376 
0.030403081575628297 
0.02280231118327622 
0.007600770397867197 
-0.007600770391786803 
-0.02280231118568484 
-0.030403081582985825 
0.029186958303324406 
0.021890218733340946 
0.007296739589194809 
-0.007296739568872362 
-0.021890218740860314 
-0.02918695832894377 
0.027970835020381106 
0.020978126280801226 
0.006992708788446158 
-0.006992708738034155 
-0.020978126298639932 
-0.027970835085540578 
0.026754711724805882 
0.020066033825856925 
0.006688677996418134 
-0.006688677898475523 
-0.02006603385882427 
-0.026754711854769186 
0.025538588433401444 
0.01915394137470346 
0.006384647198513798 
-0.006384647064793105 
-0.019153941415217868 
-0.025538588619827402 
0.02432246522419594 
0.018241848951276566 
0.006080616331784484 
-0.006080616299936257 
-0.018241848943885614 
-0.024322465302686933 
0.023106342324650746 
0.017329756619957393 
0.005776585218118347 
-0.005776585782016903 
-0.017329756380446357 
-0.023106341675886252 
0.02189022024746351 
0.016417664516285953 
0.005472553465628451 
-0.005472555902926522 
-0.01641766358936274 
-0.021890217226723938 
0.02067409988122445 
0.015505572853189572 
0.00516852041710624 
-0.005168527319895381 
-0.015505570357721352 
-0.020674091066594152 
0.01945798215271982 
0.01459348178706368 
0.004864485452791376 
-0.00486450065272489 
-0.01459347652915349 
-0.01945796226868198 
0.018241866196811327 
0.01368139084584244 
0.00456044947723363 
-0.004560474996721085 
-0.013681382575641348 
-0.01824183169824682 
0.01702574372997042 
0.012769297317130196 
0.0042564193433988805 
-0.004256443496985726 
-0.012769291208386775 
-0.01702570764029431 
0.015809585850170005 
0.011857192713271705 
0.003952417983060446 
-0.003952383210776547 
-0.011857210908147422 
-0.015809619004994262 
0.014593318973217832 
0.010945056868139253 
0.003648502329721423 
-0.003648237165900055 
-0.010945161816331678 
-0.014593639404481076 
0.013376796144539503 
0.010032852479912764 
0.0033447831306779863 
-0.0033438945697515632 
-0.010033181202949435 
-0.0133779158203258 
0.012159806002425808 
0.009120533717608296 
0.003041412193027065 
-0.0030392041042458223 
-0.009121315194241987 
-0.012162659226728984 
0.010942256155670061 
0.008208110008697471 
0.0027384291381679668 
-0.0027341307537253803 
-0.008209557216004715 
-0.01094795850994762 
0.009724868717789747 
0.007295857355930424 
0.002435211212083181 
-0.0024293198124535646 
-0.007297645570978837 
-0.009733075086955286 
0.008511018322906325 
0.006384846815942954 
0.002129044095423723 
-0.002127554672272616 
-0.006384553256878015 
-0.008514584287342935 
0.007310702276442086 
0.005477879134333972 
0.001812134833745643 
-0.0018366211509932484 
-0.0054674859719679465 
-0.007282515966683966 
0.006146716893903498 
0.004580554012879222 
0.0014666384334590828 
-0.0015730130025365058 
-0.004539996880411725 
-0.006015082020687217 
0.005063255741257704 
0.00369824829256622 
0.001058373193554373 
-0.0013598413382477255 
-0.003590001064183447 
-0.004676813908637433 
0.004110475961905214 
0.002825268193524882 
0.0005397927989750835 
-0.0012021563503087842 
-0.0025950307799274992 
-0.0032462236864318136 
0.0033295761245713228 
0.001877512678136135 
-0.00010720621766282642 
-0.0009757052024960138 
-0.0015575818446234146 
-0.0018036149512814016 
0.00202350939895173 
0.0008479883908023194 
-0.00038921739616206 
-0.000525667741531402 
-0.0006225373033139463 
-0.0006446412985421177 
0.0010599826741407754 
0.00033019978254630406 
-0.0003174858893233039 
-0.0002353181980663082 
-0.00021250544774672217 
-0.00018976316895926842 
</DataArray>
<DataArray type="Float64" Name="Nodal_sigma_yy" NumberOfComponents="1" format="ascii" >
0.014848056865833648 
0.011447330414595704 
0.004023301981678587 
-0.004023301981679724 
-0.01144733041459677 
-0.014848056865834677 
0.007015534735232747 
0.005910772196909499 
0.0024030048292929176 
-0.002403004829293718 
-0.005910772196910147 
-0.007015534735233274 
-0.0004110586484475775 
7.70017745848684e-05 
0.00028253109880858066 
-0.0002825310988088592 
-7.700177458501043e-05 
0.00041105864844754453 
-5.162846603125326e-05 
-0.00017046259966579502 
-0.0001446483666501769 
0.00014464836665014795 
0.00017046259966576748 
5.162846603122204e-05 
-5.610528497017927e-05 
-7.388618283697083e-05 
-4.5833540351869104e-05 
4.5833540351885476e-05 
7.388618283696606e-05 
5.610528497018534e-05 
-8.472892723546815e-06 
-1.559049186367501e-05 
-1.1354045501907567e-05 
1.1354045501887618e-05 
1.5590491863663085e-05 
8.47289272353901e-06 
-1.401543108355864e-06 
-2.0948039661462716e-06 
-1.3940324119789105e-06 
1.394032411966659e-06 
2.0948039661542947e-06 
1.4015431083541294e-06 
8.020895662669975e-08 
4.629632426706408e-08 
6.191845967483574e-09 
-6.191845896793592e-09 
-4.629632427205141e-08 
-8.02089567229769e-08 
7.014948947680483e-08 
1.0865628844954935e-07 
7.358154369141445e-08 
-7.358154371136377e-08 
-1.0865628850029001e-07 
-7.014948961731743e-08 
2.3276370718014472e-08 
3.537766524262104e-08 
2.3739479840679395e-08 
-2.373947999723819e-08 
-3.537766535971487e-08 
-2.3276370810822178e-08 
4.1947144776774414e-09 
6.860535594049172e-09 
4.76317842936988e-09 
-4.763178350223121e-09 
-6.860535638935142e-09 
-4.194714429105184e-09 
4.025516768882409e-10 
6.935443018496468e-10 
4.922685732894165e-10 
-4.922684734343964e-10 
-6.935443844658523e-10 
-4.0255160229513143e-10 
-6.757845498472914e-11 
-8.611853417883619e-11 
-5.232934035094908e-11 
5.23290557478788e-11 
8.611819026990708e-11 
6.757820171510165e-11 
-4.0501291556638286e-11 
-6.136685539066822e-11 
-4.111629895060809e-11 
4.111573343075492e-11 
6.136641910771401e-11 
4.0501192677400155e-11 
-1.078324929348895e-11 
-1.6872842749718342e-11 
-1.148143591919032e-11 
1.1480544705004536e-11 
1.6872540690993088e-11 
1.0783556339544198e-11 
-1.750889364049435e-12 
-2.8667367958645773e-12 
-1.991259913035337e-12 
1.9914251454464238e-12 
2.8668901020517668e-12 
1.7509943148197316e-12 
-9.520162436160717e-14 
-1.8689780625913421e-13 
-1.376193809517895e-13 
1.4302331563000037e-13 
1.8920151903523141e-13 
9.571163306354435e-14 
5.1556849067768695e-14 
7.481710563583821e-14 
5.5190200283147806e-14 
-3.48703542169676e-14 
-6.491855664148005e-14 
-4.779336648663701e-14 
2.6471880243406076e-14 
4.635159443766579e-14 
4.9366625154076416e-14 
5.6767470498625405e-15 
-1.8444230517888904e-14 
-1.574001345927556e-14 
1.6914421252511858e-14 
3.796398959088343e-14 
6.331656661646978e-14 
5.2922103548416755e-14 
2.2679774724920776e-14 
7.134917656692608e-15 
2.1565214891605677e-14 
5.0785764482697004e-14 
9.283524469994031e-14 
9.165866850235904e-14 
4.895823330075544e-14 
2.0263304922885084e-14 
2.1333629307562774e-14 
4.293549023259846e-14 
7.007317903012789e-14 
7.037046726582341e-14 
4.362439229299575e-14 
2.2116856956966302e-14 
-2.162939966021682e-14 
-8.364652286790841e-14 
-1.9498728261353737e-13 
-1.9462440014640647e-13 
-8.295144085512796e-14 
-2.0965000568917702e-14 
-1.9828062802762503e-13 
-5.589173871986541e-13 
-1.146684391320138e-12 
-1.1466607557127778e-12 
-5.589787530416168e-13 
-1.9845063092827075e-13 
-6.887251186027399e-13 
-1.8216730207631926e-12 
-3.6120776779769576e-12 
-3.6124393678216987e-12 
-1.8221218804626016e-12 
-6.888994583120756e-13 
-1.7491355586152224e-12 
-4.448028859301012e-12 
-8.62115898960479e-12 
-8.621700873850599e-12 
-4.4483209433662796e-12 
-1.748635958254141e-12 
-3.4799541720476057e-12 
-8.493457239605595e-12 
-1.604492043784725e-11 
-1.6045033303293404e-11 
-8.493792583337545e-12 
-3.4803991286191938e-12 
-4.969238562302358e-12 
-1.1199860917160409e-11 
-2.002961021325099e-11 
-2.0029277037923385e-11 
-1.1199712923563865e-11 
-4.969608925764479e-12 
-2.00906522321298e-12 
-1.1640434709886405e-12 
2.3448577877571014e-12 
2.34528734865784e-12 
-1.1633593394178021e-12 
-2.008556081872781e-12 
1.7628773007344334e-11 
5.328681896774046e-11 
1.1313965085982258e-10 
1.131403506039047e-10 
5.328786674071995e-11 
1.762946906513907e-11 
8.143852909744953e-11 
2.2076380946835922e-10 
4.437993433034984e-10 
4.4379977178019697e-10 
2.2076486699915826e-10 
8.143978720565048e-11 
2.369239309948923e-10 
6.137898464226438e-10 
1.2027464228021e-09 
1.2027491148760942e-09 
6.137942972894023e-10 
2.369274485804207e-10 
5.331776144722189e-10 
1.3306359087500441e-09 
2.5494486048638874e-09 
2.5494639501193357e-09 
1.330658163842778e-09 
5.331914341467903e-10 
9.221301938179549e-10 
2.1848311292744713e-09 
4.047585981808185e-09 
4.047630993545578e-09 
2.1848978122617282e-09 
9.221735363176831e-10 
9.55980774142856e-10 
1.9162550306305384e-09 
3.1133811971784326e-09 
3.1133847588909894e-09 
1.916270576246548e-09 
9.56004741949762e-10 
-9.209143118221741e-10 
-3.5875561849594076e-09 
-8.406470309630949e-09 
-8.407396374194524e-09 
-3.588871858007346e-09 
-9.216935287909012e-10 
-8.658157954043871e-09 
-2.437497365287509e-08 
-4.999236493742935e-08 
-4.999916930672609e-08 
-2.4384904325424565e-08 
-8.66441056054934e-09 
-3.0121753735821294e-08 
-7.965000880253087e-08 
-1.5793992654350377e-07 
-1.5796971040740976e-07 
-7.969410117892803e-08 
-3.0150370760803624e-08 
-7.655923439761798e-08 
-1.94803681488674e-07 
-3.776829943155771e-07 
-3.777536055117207e-07 
-1.9491235937426667e-07 
-7.663536777651608e-08 
-1.527515402918126e-07 
-3.7288231798441023e-07 
-7.045189018986753e-07 
-7.043984791192881e-07 
-3.727263290624356e-07 
-1.5268040800663768e-07 
-2.196849920789879e-07 
-4.953507007694107e-07 
-8.847112198652555e-07 
-8.822945154061994e-07 
-4.919019272632682e-07 
-2.1762085398481512e-07 
-9.887490215118588e-08 
-7.02140288365554e-08 
7.89269964860439e-08 
9.376446767902716e-08 
-4.830876468818468e-08 
-8.473931624041094e-08 
7.413311285879402e-07 
2.273953326493278e-06 
4.893045152017361e-06 
4.9506080349132834e-06 
2.3586873234290135e-06 
7.956733566675655e-07 
3.477726444530609e-06 
9.566430574693734e-06 
1.9339132177282952e-05 
1.9430775258085534e-05 
9.720245921690247e-06 
3.602070976918472e-06 
1.0706378452342573e-05 
2.7238329604656e-05 
5.289247329044088e-05 
5.239026442049318e-05 
2.6495137552643913e-05 
1.0224412088213788e-05 
2.5319315655040185e-05 
6.262970843578418e-05 
0.0001147538932395688 
0.00010864007875244412 
5.422570498516389e-05 
2.0738937728048928e-05 
6.0826485285705436e-05 
0.00012031619334898223 
0.00019268835431128923 
0.00016216241801977115 
7.262483706356308e-05 
2.6495645297903297e-05 
7.274224121430725e-05 
0.0001656776937037711 
0.00019065771921402636 
7.442883559887868e-05 
1.400916975571832e-05 
1.8629605484970688e-06 
0.00026968944657299206 
-9.148961806853672e-06 
-0.00039835495002411446 
-0.00042633949804962387 
-0.00021347556898006372 
-8.29946717224092e-05 
-0.0032195856145115767 
-0.003058353911412893 
-0.0023983038017148656 
-0.0013773883507721446 
-0.0005064500616144681 
-0.0001576088168001694 
-0.006919976267971783 
-0.0059219440362106085 
-0.003850304573935804 
-0.0019350403456372713 
-0.0006325835462635604 
-0.00017178374467475231 
</DataArray>
<DataArray type="Float64" Name="Nodal_sigma_xy" NumberOfComponents="1" format="ascii" >
-0.005038002409343493 
-0.0022448250248784988 
0.00151382622954634 
0.0015138262295461766 
-0.0022448250248789862 
-0.00503800240934414 
-0.0025573148565216836 
-0.0016763157535143907 
-0.0002950268182288694 
-0.00029502681822898586 
-0.0016763157535146804 
-0.0025573148565220297 
-0.00020957370566512806 
-0.001059151819920938 
-0.0020860613272508538 
-0.0020860613272508837 
-0.0010591518199209663 
-0.0002095737056651247 
-0.0004681114840792136 
-0.0010607157033480558 
-0.001955228554616764 
-0.001955228554616748 
-0.0010607157033480146 
-0.00046811148407916386 
-0.000634890812356266 
-0.0011256616915629068 
-0.0018068929022633943 
-0.0018068929022633684 
-0.0011256616915628593 
-0.0006348908123562228 
-0.0006835235674717188 
-0.0011438382277215164 
-0.0017643999885470505 
-0.0017643999885470249 
-0.0011438382277214755 
-0.0006835235674716878 
-0.0006916704316003514 
-0.0011476807656157404 
-0.0017564840185884897 
-0.0017564840185884836 
-0.0011476807656157313 
-0.000691670431600345 
-0.0006922502044549319 
-0.0011480624415349135 
-0.0017558124562419846 
-0.0017558124562419767 
-0.0011480624415348972 
-0.000692250204454915 
-0.0006920554612981351 
-0.0011480264999979306 
-0.001755945769357311 
-0.0017559457693572889 
-0.0011480264999979013 
-0.0006920554612981208 
-0.000691963819760232 
-0.0011479949627767859 
-0.001756023127347376 
-0.001756023127347372 
-0.0011479949627767794 
-0.0006919638197602267 
-0.0006919415291424312 
-0.0011479861874205415 
-0.0017560430480125107 
-0.001756043048012516 
-0.001147986187420548 
-0.0006919415291424338 
-0.0006919382595367635 
-0.001147984645888877 
-0.0017560462243471028 
-0.001756046224347048 
-0.0011479846458887803 
-0.0006919382595366801 
-0.0006919381834798656 
-0.0011479845364963822 
-0.0017560463717682469 
-0.0017560463717681087 
-0.0011479845364961187 
-0.0006919381834796153 
-0.0006919383107302272 
-0.0011479845706097586 
-0.0017560462740298544 
-0.0017560462740295834 
-0.0011479845706092787 
-0.0006919383107298097 
-0.0006919383574276476 
-0.0011479845874047905 
-0.001756046233886509 
-0.001756046233885956 
-0.00114798458740376 
-0.0006919383574266929 
-0.0006919383673735294 
-0.0011479845915089296 
-0.0017560462248096737 
-0.001756046224809074 
-0.0011479845915076201 
-0.0006919383673721104 
-0.0006919383685732588 
-0.0011479845921216652 