<?xml version="1.0"?>
<VTKFile type="UnstructuredGrid" version="0.1" byte_order="LittleEndian" compressor="vtkZLibDataCompressor">
<UnstructuredGrid>
<Piece NumberOfPoints="306" NumberOfCells="250">
<PointData>
<DataArray type="Float64" Name="displacement" NumberOfComponents="3" format="ascii" >
0.0 0.0  0.
0.0 0.0  0.
0.0 0.0  0.
0.0 0.0  0.
0.0 0.0  0.
0.0 0.0  0.
0.08762129507028077 -0.05850726279214503  0.
0.04556561876149133 -0.020659114341173214  0.
0.014999354779788249 -0.0058679017979164335  0.
-0.014999354779793124 -0.005867901797917276  0.
-0.045565618761496327 -0.02065911434117596  0.
-0.08762129507028728 -0.05850726279215068  0.
0.17622992577480567 -0.11555897230689534  0.
0.10203231613825516 -0.08042513927963418  0.
0.03298492190547303 -0.06147163252465014  0.
-0.032984921905483765 -0.06147163252465152  0.
-0.10203231613826634 -0.08042513927963847  0.
-0.1762299257748178 -0.11555897230690246  0.
0.264181150174318 -0.20776352891416291  0.
0.15626599405936806 -0.1728564042320761  0.
0.051604027862307354 -0.15511362724316663  0.
-0.051604027862324424 -0.15511362724316818  0.
-0.15626599405938546 -0.1728564042320808  0.
-0.2641811501743358 -0.20776352891417055  0.
0.3512041038665713 -0.3346600294311729  0.
0.2088112874254688 -0.3006411828806727  0.
0.06925219543326942 -0.2835432253565434  0.
-0.06925219543329286 -0.28354322535654497  0.
-0.2088112874254924 -0.3006411828806774  0.
-0.35120410386659506 -0.3346600294311806  0.
0.43652057231213953 -0.4962063797314334  0.
0.26004594001775705 -0.4629423815050008  0.
0.08636633249444026 -0.4463011896714773  0.
-0.08636633249447 -0.44630118967147886  0.
-0.2600459400177868 -0.4629423815050054  0.
-0.43652057231216934 -0.49620637973144105  0.
0.5199878842018701 -0.6915467718331341  0.
0.3101258591552123 -0.65902842606618  0.
0.10306384497970036 -0.6427691773164923  0.
-0.10306384497973632 -0.6427691773164939  0.
-0.31012585915524826 -0.6590284260661845  0.
-0.5199878842019061 -0.6915467718331417  0.
0.6015787953255708 -0.9199084618524169  0.
0.359078166772205 -0.8881295119450949  0.
0.11938134640942445 -0.8722405861916993  0.
-0.11938134640946658 -0.8722405861917009  0.
-0.35907816677224713 -0.8881295119450996  0.
-0.601578795325613 -0.9199084618524245  0.
0.6812928519299604 -1.180531923953439  0.
0.40690585751631514 -1.1494919935250092  0.
0.13532370035123575 -1.1339721971890857  0.
-0.13532370035128405 -1.1339721971890873  0.
-0.40690585751636343 -1.1494919935250136  0.
-0.6812928519300085 -1.1805319239534466  0.
0.7591308732441269 -1.4726657238191887  0.
0.4536085223528731 -1.4423647922462257  0.
0.15089118709210766 -1.4272143611220867  0.
-0.15089118709216204 -1.427214361122088  0.
-0.45360852235292753 -1.4423647922462302  0.
-0.7591308732441813 -1.4726657238191962  0.
0.8350932011786807 -1.7955595157362816  0.
0.4991859034193712 -1.7659976196022868  0.
0.1660836333359107 -1.7512166750189344  0.
-0.1660836333359713 -1.7512166750189357  0.
-0.4991859034194317 -1.7659976196022915  0.
-0.8350932011787412 -1.7955595157362894  0.
0.9091799078472541 -2.148463093892471  0.
0.543637928991259 -2.11964024295123  0.
0.1809009736979081 -2.105228817104919  0.
-0.18090097369797478 -2.105228817104921  0.
-0.5436379289913256 -2.1196402429512347  0.
-0.9091799078473205 -2.1484630938924782  0.
0.9813910026440513 -2.530626228645448  0.
0.5869645871334647 -2.5025424250185875  0.
0.1953431932144752 -2.4885005229067825  0.
-0.19534319321454788 -2.488500522906784  0.
-0.5869645871335374 -2.502542425018591  0.
-0.9813910026441239 -2.530626228645455  0.
1.0517264852824795 -2.9412986786358633  0.
0.6291658770729063 -2.913953922517665  0.
0.20941028997917802 -2.900281544375825  0.
-0.2094102899792561 -2.900281544375826  0.
-0.6291658770729852 -2.913953922517668  0.
-1.051726485282559 -2.9412986786358695  0.
1.1201863552435005 -3.3797301992278768  0.
0.6702417991116366 -3.353124490595537  0.
0.22310226402564368 -3.3398216362650035  0.
-0.22310226402572597 -3.3398216362650035  0.
-0.6702417991117218 -3.3531244905955386  0.
-1.1201863552435878 -3.379730199227882  0.
1.1867706123618247 -3.845170545275991  0.
0.7101923533871208 -3.819303884111284  0.
0.23641911545673955 -3.80637055352793  0.
-0.23641911545682462 -3.8063705535279304  0.
-0.7101923533872121 -3.819303884111285  0.
-1.1867706123619228 -3.8451705452759963  0.
1.2514792566058153 -4.336869471606312  0.
0.7490175399321453 -4.311741857904309  0.
0.2493608443055271 -4.299178051053634  0.
-0.24936084430561437 -4.299178051053636  0.
-0.7490175399322423 -4.311741857904315  0.
-1.2514792566059294 -4.336869471606325  0.
1.3143122879723863 -4.854076733060191  0.
0.7867173587514155 -4.829688166820039  0.
0.2619274505784897 -4.817493883700126  0.
-0.2619274505785853 -4.817493883700139  0.
-0.786717358751518 -4.829688166820067  0.
-1.3143122879725202 -4.8540767330602295  0.
1.375269706461977 -5.396042084485324  0.
0.8232918098450052 -5.372392565706965  0.
0.27411893427627326 -5.360567806317846  0.
-0.2741189342764036 -5.360567806317886  0.
-0.8232918098451127 -5.372392565707055  0.
-1.3752697064621218 -5.396042084485424  0.
1.4343515120749006 -5.96201528073087  0.
0.85874089321272 -5.939104809414319  0.
0.2859352953987749 -5.927649573756112  0.
-0.2859352953990152 -5.927649573756213  0.
-0.8587408932128312 -5.939104809414546  0.
-1.4343515120750017 -5.962015280731097  0.
1.4915577048112971 -6.551246076646204  0.
0.89306460885449 -6.5290746527914525  0.
0.2973765339458916 -6.517988940864214  0.
-0.2973765339464078 -6.5179889408644165  0.
-0.8930646088546034 -6.529074652791907  0.
-1.4915577048111772 -6.5512460766466125  0.
1.5468882846713075 -7.162984227080778  0.
0.9262629567702998 -7.141551850687786  0.
0.308442649917551 -7.130835662491517  0.
-0.3084426499186225 -7.130835662491816  0.
-0.926262956770416 -7.141551850688452  0.
-1.5468882846705347 -7.1629842270812665  0.
1.6003432516551266 -7.796479486884256  0.
0.9583359369601434 -7.775786157952941  0.
0.31913364331375693 -7.765439493487493  0.
-0.3191336433156502 -7.765439493487652  0.
-0.9583359369602722 -7.775786157953283  0.
-1.60034325165288 -7.796479486884124  0.
1.6519226057628809 -8.450981610906789  0.
0.989283549424007 -8.431027329437045  0.
0.32944951413482726 -8.42105018870184  0.
-0.32944951413717216 -8.421050188700937  0.
-0.9892835494241857 -8.431027329434983  0.
-1.6519226057580871 -8.450981610903746  0.
1.701626346994071 -9.1257403539994  0.
1.0191057941618609 -9.106525119991224  0.
0.33939026238201525 -9.096917502984704  0.
-0.3393902623819356 -9.096917502980247  0.
-1.0191057941621868 -9.106525119981153  0.
-1.7016263469866548 -9.125740353987833  0.
1.7494544753460326 -9.820005471014017  0.
1.0478026711736532 -9.801529284467948  0.
0.3489558880587187 -9.79229119118684  0.
-0.34895588804654337 -9.79229119117355  0.
-1.0478026711743273 -9.801529284438045  0.
-1.7494544753412473 -9.82000547098318  0.
1.7954069908106147 -10.533026716801757  0.
1.0753741804593342 -10.515289577719972  0.
0.3581463911721448 -10.50642100815914  0.
-0.3581463911237879 -10.506421008128664  0.
-1.0753741804606578 -10.515289577651611  0.
-1.795406990830016 -10.533026716737382  0.
1.839483893368759 -11.26405384620578  0.
1.101820322018965 -11.247055754594275  0.
0.3669617717337478 -11.238556708749968  0.
-0.36696177160221516 -11.238556708695956  0.
-1.1018203220211173 -11.247055754473603  0.
-1.8394838934720217 -11.264053846106002  0.
1.8816851829858563 -12.012336614041333  0.
1.127141095853056 -11.996077569912993  0.
0.3754020297523805 -11.987948047796676  0.
-0.37540202947297213 -11.987948047736783  0.
-1.1271410958551948 -11.996077569780594  0.
-1.8816851833018717 -12.01233661397251  0.
1.9220108596211076 -12.777124775052423  0.
1.1513365019633461 -12.761604778428145  0.
0.3834671652044171 -12.753844780105437  0.
-0.3834671647596848 -12.753844780143694  0.
-1.1513365019611526 -12.76160477851929  0.
-1.9220108603603658 -12.777124775291618  0.
1.9604609232892547 -13.557668083840444  0.
1.1744065403541981 -13.542887134737716  0.
0.39115717794882515 -13.535496660413722  0.
-0.39115717760338564 -13.53549666087794  0.
-1.1744065403346273 -13.542887135790423  0.
-1.9604609246327642 -13.557668085160653  0.
1.9970353742609122 -14.353216294800863  0.
1.1963512110341963 -14.339174393182006  0.
0.39847206753956943 -14.332153443343543  0.
-0.3984720684501111 -14.332153445016226  0.
-1.1963512109670356 -14.339174396952423  0.
-1.9970353758484516 -14.353216298882874  0.
2.031734213550297 -15.163019162237584  0.
1.2171705140153495 -15.149716307860189  0.
0.4054118329092867 -15.143064883407312  0.
-0.4054118383672346 -15.14306488774484  0.
-1.2171705138463773 -15.149716317604822  0.
-2.0317342129932054 -15.163019171853096  0.
2.0645574438436394 -15.986326441151562  0.
1.2368644493016223 -15.973762633233852  0.
0.4119764720656767 -15.967480735273481  0.
-0.4119764893470968 -15.967480744094015  0.
-1.2368644489687315 -15.973762652984774  0.
-2.064557433380753 -15.98632645876911  0.
2.095505070715675 -16.822387889826665  0.
1.2554330168468322 -16.810563126473067  0.
0.41816598250552495 -16.804650754806637  0.
-0.4181660238930135 -16.804650767897787  0.
-1.2554330163804415 -16.81056315562089  0.
-2.0955050314361494 -16.822387911045727  0.
2.1245771027258327 -17.67045327616768  0.
1.2728762164442609 -17.659367553786684  0.
0.42398036445470083 -17.653824701884087  0.
-0.4239804417789657 -17.653824708977936  0.
-1.2728762162884397 -17.65936756900258  0.
-2.1245769985994434 -17.670453270476003  0.
2.1517735455094185 -18.529772389855346  0.
1.2891940474989259 -18.51942570378653  0.
0.4294196317808334 -18.51425234636318  0.
-0.42941972913405746 -18.51425230718046  0.
-1.2891940492858407 -18.51942561421418  0.
-2.1517733292359607 -18.529772257072864  0.
2.1770943774701195 -19.399595058515896  0.
1.3043865086787758 -19.389987408575873  0.
0.4344838391948793 -19.385183477547226  0.
-0.43448383122681444 -19.385183282926462  0.
-1.3043865166864637 -19.389986968842557  0.
-2.177094044957781 -19.399594552890047  0.
2.2005394824321947 -20.279171149988425  0.
1.3184535976799612 -20.27030255954331  0.
0.439173135378016 -20.265867911452645  0.
-0.43917259929611313 -20.26586732998691  0.
-1.3184536207016206 -20.270301251188968  0.
-2.2005392620424282 -20.279169799760624  0.
2.222108504030093 -21.16775049775209  0.
1.33139531211875 -21.159621061952492  0.
0.44348783630362426 -21.155555470942005  0.
-0.4434857172292393 -21.15555413529011  0.
-1.3313953634300928 -21.1596180658145  0.
-2.2221093372557585 -21.167747674102856  0.
2.2418006075650867 -22.064582589483855  0.
1.34321165456764 -22.057192569988096  0.
0.4474284460403233 -22.05349586802774  0.
-0.44742268163169335 -22.05349349531156  0.
-1.3432117422195584 -22.057187269296723  0.
-2.2418051060534356 -22.064578200025434  0.
2.2596142712538922 -22.96891569628489  0.
1.3539026500866584 -22.962265656281026  0.
0.45099536243217575 -22.958938328590587  0.
-0.4509831027223853 -22.95893568294364  0.
-1.3539027374573662 -22.962259804064306  0.
-2.2596280869874357 -22.9689126265733  0.
2.2755476767934213 -23.879994986689944  0.
1.3634683950061317 -23.874085825265844  0.
0.4541875867795286 -23.871130697744096  0.
-0.45416802222470776 -23.871132310060766  0.
-1.3634682948322108 -23.87408968937006  0.
-2.27558005973318 -23.880005329813695  0.
2.289601313282189 -24.79705933186705  0.
1.3719091750107912 -24.79189184332181  0.
0.4569990417134979 -24.78931773374428  0.
-0.45698366635423715 -24.789337971898828  0.
-1.3719083139189154 -24.791937671415603  0.
-2.2896603147592347 -24.797116953325027  0.
2.301786658453075 -25.719338396706664  0.
1.379225584719178 -25.714910853708016  0.
0.45941028061287204 -25.712739344555178  0.
-0.459449579007674 -25.71281230969728  0.
-1.37922268029532 -25.715075722614785  0.
-2.301856654618761 -25.719516809209207  0.
2.312147312127093 -26.64605465899904  0.
1.385417828425152 -26.642358992939965  0.
0.46137351910900304 -26.6406316270384  0.
-0.4616114781357174 -26.64082204904873  0.
-1.3854105089851063 -26.64278508942037  0.
-2.312124542616981 -26.64647665898826  0.
2.320808357985308 -27.576457869748168  0.
1.3904783719491873 -27.57346007531236  0.
0.4627915500256604 -27.572252078242364  0.
-0.46354613064010763 -27.57263490251772  0.
-1.3904656724790856 -27.574328580008228  0.
-2.320350448389229 -27.577228354091325  0.
2.3280505935985496 -28.509890480971947  0.
1.39435549096587 -28.507574016410814  0.
0.46351407623143587 -28.506933063031678  0.
-0.4653202131900768 -28.50751781220626  0.
-1.3943444874647086 -28.508838333298254  0.
-2.3263365581769913 -28.510846523284933  0.
2.3345596035977527 -29.446364918397308  0.
1.3968368291305049 -29.444362776972717  0.
0.4634051438073191 -29.444385393961483  0.
-0.4667305849701811 -29.444557983169812  0.
-1.3969382653634792 -29.445077489653816  0.
-2.3299035467191596 -29.44606155033033  0.
2.3409614856659973 -30.38627828804088  0.
1.3972215633775265 -30.385836403908357  0.
0.463447781791652 -30.38397661751285  0.
-0.46717522442301934 -30.382091375308498  0.
-1.3981262930233505 -30.381222457990816  0.
-2.3312544291075876 -30.38122082385192  0.
2.3489598766982467 -31.349241110503694  0.
1.4002494964389567 -31.331318516103096  0.
0.46541841102022163 -31.32151341417815  0.
-0.46635187254853205 -31.316832802154593  0.
-1.398201241722356 -31.315289543144004  0.
-2.331438963075935 -31.315097914218228  0.
</DataArray>
<DataArray type="Float64" Name="Nodal_sigma_xx" NumberOfComponents="1" format="ascii" >
0.04242887178154942 
0.031082147117384225 
0.009867711226608688 
-0.009867711226611994 
-0.031082147117387746 
-0.042428871781553155 
0.04142574060291718 
0.031002107915015044 
0.0102892376135556 
-0.010289237613559033 
-0.031002107915018527 
-0.0414257406029207 
0.04015556845349974 
0.030505809908273653 
0.010428025681522889 
-0.01042802568152646 
-0.030505809908277105 
-0.04015556845350308 
0.03950561796027134 
0.02973646775961227 
0.009983658779475697 
-0.009983658779479262 
-0.02973646775961572 
-0.03950561796027472 
0.03871380676175352 
0.029058355478720835 
0.009701452097843183 
-0.009701452097846713 
-0.02905835547872428 
-0.03871380676175692 
0.037885444380078764 
0.02841633778802586 
0.0094736155979856 
-0.009473615597989107 
-0.02841633778802933 
-0.037885444380082206 
0.03704509073809994 
0.027783603566479534 
0.009261058197428697 
-0.009261058197432172 
-0.027783603566483017 
-0.03704509073810343 
0.03620317038822701 
0.027152188650185878 
0.009050603456071511 
-0.009050603456074965 
-0.027152188650189344 
-0.03620317038823048 
0.035361155316569665 
0.026520814022884205 
0.008840236364598516 
-0.008840236364601968 
-0.026520814022887664 
-0.035361155316573106 
0.03451919702231715 
0.025889388539006714 
0.00862979002784726 
-0.008629790027850744 
-0.025889388539010145 
-0.034519197022320564 
0.033677260049118196 
0.025257944383297433 
0.00841931435873747 
-0.008419314358740907 
-0.025257944383300805 
-0.03367726004912153 
0.03283532798759945 
0.02462649619458389 
0.008208832200783337 
-0.00820883220078674 
-0.024626496194587344 
-0.03283532798760286 
0.03199339655378201 
0.023995047515788813 
0.007998349238896998 
-0.007998349238900401 
-0.023995047515792397 
-0.03199339655378561 
0.031151465110421012 
0.023363598857354465 
0.007787866302143195 
-0.007787866302146401 
-0.02336359885735801 
-0.031151465110424735 
0.03030953363361947 
0.022732150228881816 
0.007577383412071498 
-0.007577383412074153 
-0.022732150228885493 
-0.030309533633623854 
0.02946760214602269 
0.022100701609617128 
0.007366900536605501 
-0.0073669005366072725 
-0.02210070160962112 
-0.02946760214602826 
0.028625670656299163 
0.02146925299208787 
0.007156417663938147 
-0.007156417663939344 
-0.021469252992091924 
-0.028625670656305443 
0.027783739166360108 
0.02083780437471889 
0.006945934791537946 
-0.006945934791540773 
-0.02083780437472213 
-0.027783739166364497 
0.026941807676451136 
0.020206355757324816 
0.006735451919094721 
-0.00673545191910691 
-0.020206355757324324 
-0.02694180767644389 
0.026099876186573723 
0.01957490713991782 
0.0065249690466155025 
-0.0065249690466573675 
-0.019574907139906426 
-0.02609987618652903 
0.025257944696728738 
0.018943458522513477 
0.0063144861741088795 
-0.006314486174221321 
-0.01894345852247728 
-0.025257944696592382 
0.02441601320692628 
0.018312009905118033 
0.006104003301571178 
-0.006104003301814227 
-0.018312009905038083 
-0.024416013206615135 
0.023574081717151286 
0.017680561287724408 
0.005893520429017779 
-0.005893520429422856 
-0.01768056128759717 
-0.0235740817166106 
0.02273215022727218 
0.017049112670289447 
0.005683037556557632 
-0.005683037556938124 
-0.017049112670197503 
-0.022732150226710206 
0.02189021873683089 
0.016417664052678933 
0.005472554684554239 
-0.005472554683996723 
-0.016417664052973534 
-0.021890218737372114 
0.021048287244664444 
0.01578621543457459 
0.00526207181390734 
-0.005262071809698676 
-0.015786215436243395 
-0.021048287249759493 
0.020206355748454096 
0.01515476681538861 
0.005051588946364526 
-0.005051588932296685 
-0.015154766820595193 
-0.020206355766191085 
0.019364424244877918 
0.014523318194399702 
0.004841106084307939 
-0.0048411060494086295 
-0.014523318206750204 
-0.01936442428998876 
0.018522492732556434 
0.013891869571745959 
0.0046306232282888795 
-0.004630623160483053 
-0.013891869594569936 
-0.0185224928225315 
0.01768056122312217 
0.013260420951716638 
0.004420140368201471 
-0.0044201402756259035 
-0.013260420979765347 
-0.017680561352187048 
0.016838629770594967 
0.012628972350882168 
0.004209657460465289 
-0.004209657438417179 
-0.012628972345765967 
-0.01683862982493637 
0.015996698532448037 
0.01199752381381457 
0.003999174381773088 
-0.003999174772165335 
-0.011997523648000457 
-0.015996698083305172 
0.01515476786362658 
0.011366075434350064 
0.0037886908608189386 
-0.0037886925481797383 
-0.011366074792634791 
-0.015154765772345782 
0.01431283837930682 
0.01073462735989855 
0.003578206442611441 
-0.0035782112214658764 
-0.010734625632267571 
-0.014312832276870788 
0.013470910721110509 
0.010103179698734066 
0.0033677206980857887 
-0.003367731221116964 
-0.010103176058643774 
-0.013470896955239661 
0.012628984290097347 
0.009471732124042878 
0.003157234253468937 
-0.0031572519208066105 
-0.00947172639851972 
-0.012628960406476758 
0.011787053351515659 
0.008840282758011584 
0.0029467518531217734 
-0.002946768574835632 
-0.008840278528881728 
-0.011787028366356155 
0.010945097896268973 
0.008208825724570967 
0.0027362893728873224 
-0.0027362652997676776 
-0.008208838321023836 
-0.010945120849610634 
0.010103066981455536 
0.007577347062555553 
0.002525886228267386 
-0.0025257026533153314 
-0.007577419718998016 
-0.010103288818486168 
0.009260858869294316 
0.00694582094762962 
0.0023156190904682784 
-0.0023150039329046996 
-0.006946048525118212 
-0.00926163402945539 
0.00841832723244714 
0.0063142156506505506 
0.002105593056710617 
-0.0021040643798619727 
-0.006314756672936085 
-0.008420302541580953 
0.0075754081077703634 
0.0056825376983279515 
0.0018958355571920885 
-0.0018928597525793142 
-0.005683539611079544 
-0.007579355891501823 
0.006732601420007231 
0.005050978169489374 
0.0016859154545175988 
-0.0016818367932378811 
-0.005052216164522791 
-0.006738282752506139 
0.005892243454319117 
0.004420278564883178 
0.0014739536045232952 
-0.0014729224654198305 
-0.004420075331683723 
-0.005894712198928433 
0.005061255422151674 
0.0037923778622305946 
0.0012545548849000846 
-0.0012715069506874675 
-0.003785182595977187 
-0.005041741823088785 
0.004255419388086256 
0.0031711527781467627 
0.001015365069317342 
-0.0010890090017562117 
-0.003143074763361694 
-0.00416428755278355 
0.003505330897792473 
0.002560325741007279 
0.0007327199032296678 
-0.0009414286187877106 
-0.0024853853521269132 
-0.0032377942444411553 
0.002845714127471724 
0.001955954903209239 
0.0003737027069822662 
-0.0008322620886757964 
-0.0017965597707187378 
-0.0022473856290681038 
0.0023050911631643835 
0.001299816469478576 
-7.421968915153138e-05 
-0.0006754882171127752 
-0.0010783258924312736 
-0.001248656504732828 
0.0014008911223506561 
0.0005870688859394349 
-0.00026945819734309866 
-0.00036392382106052333 
-0.00043098736383251644 
-0.00044629012975839756 
0.000733834159019799 
0.00022859984945445552 
-0.0002197979233774139 
-0.00016291259866157387 
-0.00014711915613223689 
-0.00013137450158526588 
</DataArray>
<DataArray type="Float64" Name="Nodal_sigma_yy" NumberOfComponents="1" format="ascii" >
0.010279423984041174 
0.00792507490241428 
0.002785362910393403 
-0.002785362910394528 
-0.007925074902415338 
-0.010279423984042198 
0.004856908662854621 
0.0040920730593998495 
0.0016636187279723328 
-0.0016636187279731227 
-0.00409207305940049 
-0.004856908662855147 
-0.00028457906430992986 
5.330892086646225e-05 
0.0001955984530213481 
-0.00019559845302162358 
-5.330892086659561e-05 
0.00028457906430989777 
-3.5742784175486764e-05 
-0.00011801256899940968 
-0.00010014117691168833 
0.00010014117691164209 
0.00011801256899939797 
3.574278417546768e-05 
-3.8842120363987744e-05 
-5.115197273328448e-05 
-3.173091255129508e-05 
3.173091255130196e-05 
5.115197273330421e-05 
3.884212036399555e-05 
-5.865848808608333e-06 
-1.0793417444059615e-05 
-7.860493039753795e-06 
7.860493039752765e-06 
1.0793417444071758e-05 
5.865848808641293e-06 
-9.702990750653714e-07 
-1.4502488996303523e-06 
-9.650993620903211e-07 
9.65099362099591e-07 
1.4502488996210282e-06 
9.702990750575652e-07 
5.5529277654363385e-08 
3.2051301400480917e-08 
4.286662585659129e-09 
-4.286662562240362e-09 
-3.2051301430404897e-08 
-5.552927771160926e-08 
4.856503122395439e-08 
7.522358431359503e-08 
5.094106870812305e-08 
-5.0941068713977744e-08 
-7.522358433679696e-08 
-4.856503123262801e-08 
1.6114410490014608e-08 
2.4492229838647336e-08 
1.643502455715663e-08 
-1.6435024630340276e-08 
-2.449222980113394e-08 
-1.6114410414554137e-08 
2.9040330296742356e-09 
4.749601592883221e-09 
3.2975850724082517e-09 
-3.2975850518084104e-09 
-4.749601518073271e-09 
-2.9040329438054235e-09 
2.7868954539933544e-10 
4.801459547879375e-10 
3.408012276789711e-10 
-3.408012377620513e-10 
-4.801460703638891e-10 
-2.786895740222728e-10 
-4.678504198635247e-11 
-5.962058722153857e-11 
-3.622809173421844e-11 
3.622778517605417e-11 
5.962030175110655e-11 
4.678498213839255e-11 
-2.8039320865147488e-11 
-4.248465999574097e-11 
-2.8465171490526728e-11 
2.846454205695549e-11 
4.2484422989146065e-11 
2.8039418009662143e-11 
-7.465605390832852e-12 
-1.168121762512575e-11 
-7.94861057399135e-12 
7.947956691661123e-12 
1.168087046359012e-11 
7.465436255293945e-12 
-1.212359206081981e-12 
-1.98482224579577e-12 
-1.3785171463533141e-12 
1.3787039543876334e-12 
1.9846145126595216e-12 
1.2120721093467068e-12 
-6.569831484393163e-14 
-1.2943281429284026e-13 
-9.537612670126872e-14 
9.90538488905568e-14 
1.3101813470944856e-13 
6.6343631976995e-14 
3.5955179805702286e-14 
5.186909929344452e-14 
3.821864157614596e-14 
-2.4037331370144188e-14 
-4.4930639070406286e-14 
-3.313235102941903e-14 
1.886425043950979e-14 
3.221348968823756e-14 
3.419294469959866e-14 
4.126066892665148e-15 
-1.2783719395559334e-14 
-1.099641211421698e-14 
1.2024669454602233e-14 
2.6313586726223193e-14 
4.386711805436094e-14 
3.680495036344211e-14 
1.5743374486010264e-14 
5.008580356014036e-15 
1.523650997037329e-14 
3.5021139634106024e-14 
6.408922329469158e-14 
6.342796838969267e-14 
3.386071804889479e-14 
1.423817660994864e-14 
1.5283347504224665e-14 
2.9886358145214675e-14 
4.838477166667354e-14 
4.866026743870211e-14 
3.0142121437704006e-14 
1.5243882545146192e-14 
-1.4931632319470367e-14 
-5.757373744419425e-14 
-1.3471423412556027e-13 
-1.3478991143719976e-13 
-5.751497368644554e-14 
-1.4662750180693962e-14 
-1.3791268474450114e-13 
-3.872281184938431e-13 
-7.935729981131678e-13 
-7.937289063855713e-13 
-3.870403346775686e-13 
-1.3722530056714533e-13 
-4.77865576969938e-13 
-1.261746891863258e-12 
-2.500214228359776e-12 
-2.500460992774234e-12 
-1.261780935811474e-12 
-4.774401360374547e-13 
-1.2112745702286265e-12 
-3.0800034831607315e-12 
-5.968738497159551e-12 
-5.9686271495964366e-12 
-3.07994916463189e-12 
-1.211388628297172e-12 
-2.4089788323855554e-12 
-5.880341352737517e-12 
-1.1108919909181073e-11 
-1.1108582071784126e-11 
-5.880096106206101e-12 
-2.409164014116616e-12 
-3.4397363429805594e-12 
-7.753408592242605e-12 
-1.3867063815048604e-11 
-1.3866890884802092e-11 
-7.753488714783152e-12 
-3.4402424485546756e-12 
-1.3903110433755028e-12 
-8.053077519068474e-13 
1.6235665698145774e-12 
1.6236330314077507e-12 
-8.054700569720685e-13 
-1.3907685766922917e-12 
1.220463227008528e-11 
3.6891648698585133e-11 
7.832812183420929e-11 
7.832804247061027e-11 
3.68916673468625e-11 
1.2204828293838066e-11 
5.6380403817835045e-11 
1.5283674613441114e-10 
3.0724561390633835e-10 
3.07246309909923e-10 
1.5283735149869415e-10 
5.6380222539231806e-11 
1.6402426639139378e-10 
4.2493114306126414e-10 
8.326701430682974e-10 
8.326728713004342e-10 
4.2493433684981374e-10 
1.640251975042195e-10 
3.691239904880794e-10 
9.21209726285465e-10 
1.7650030149034658e-09 
1.7650137558775482e-09 
9.21224776963183e-10 
3.691326098953507e-10 
6.383977320303241e-10 
1.512575227720879e-09 
2.8021753955848744e-09 
2.8022060249467684e-09 
1.5126214222144219e-09 
6.384288622936218e-10 
6.618309338068951e-10 
1.3266370936905816e-09 
2.155418382689925e-09 
2.155420435843579e-09 
1.326648474994467e-09 
6.618495901073579e-10 
-6.375573469771106e-10 
-2.483693011890234e-09 
-5.81986330015858e-09 
-5.82050491241019e-09 
-2.484603705448559e-09 
-6.380955095905416e-10 
-5.994109367711553e-09 
-1.687498138414848e-08 
-3.461009830643582e-08 
-3.461480885013138e-08 
-1.6881856656201545e-08 
-5.9984388244265635e-09 
-2.0853522737394534e-08 
-5.5142314063852393e-08 
-1.0934302611530656e-07 
-1.0936364475605314e-07 
-5.5172839268666316e-08 
-2.087333586552921e-08 
-5.300254831233121e-08 
-1.3486408849720192e-07 
-2.6147284320917713e-07 
-2.615217268477963e-07 
-1.3493932636256473e-07 
-5.3055256765818445e-08 
-1.0575106668543437e-07 
-2.5814929834999233e-07 
-4.877438557487229e-07 
-4.876604851726009e-07 
-2.580413053359927e-07 
-1.0570182180967905e-07 
-1.5208960983345045e-07 
-3.4293510077450023e-07 
-6.124923826483463e-07 
-6.108192791807546e-07 
-3.405474885489763e-07 
-1.5066059231758598e-07 
-6.845185486145655e-08 
-4.860971212567377e-08 
5.4641765528106476e-08 
6.491386150584913e-08 
-3.3444529552088906e-08 
-5.8665681669772124e-08 
5.132292430388855e-07 
1.5742753798488702e-06 
3.387492795198257e-06 
3.4273440223112414e-06 
1.6329373788549035e-06 
5.508507868249831e-07 
2.407656769815676e-06 
6.6229134752590765e-06 
1.3388629967583122e-05 
1.345207517778504e-05 
6.7294010241106435e-06 
2.4937414471149725e-06 
7.41210815969999e-06 
1.8857305110583282e-05 
3.6617866122797335e-05 
3.6270183060557276e-05 
1.8342787537480346e-05 
7.078439137974237e-06 
1.752875699108673e-05 
4.335902891682182e-05 
7.944500301131056e-05 
7.521236221307058e-05 
3.754087268273471e-05 
1.4357726119392476e-05 
4.211064365703494e-05 
8.329582616486838e-05 
0.0001333996299076188 
0.00011226628939692938 
5.027873335181761e-05 
1.8343139052312237e-05 
5.036001314605304e-05 
0.00011469994179448545 
0.00013199380560902175 
5.152765541381394e-05 
9.69865598534554e-06 
1.2897419181888794e-06 
0.00018670807839538882 
-6.333896636421979e-06 
-0.00027578419617132354 
-0.0002951581140345441 
-0.00014779077852379214 
-5.745784965291042e-05 
-0.0022289438869710462 
-0.0021173219386720213 
-0.0016603641704182224 
-0.0009535765505348737 
-0.00035061927342481565 
-0.0001091137962433324 
-0.004790752800905438 
-0.004099807409685751 
-0.0026655954742622395 
-0.0013396433162102131 
-0.00043794245510495126 
-0.00011892720784789247 
</DataArray>
<DataArray type="Float64" Name="Nodal_sigma_xy" NumberOfComponents="1" format="ascii" >
-0.00348784782185421 
-0.0015541096326088047 
0.0010480335435320068 
0.0010480335435318442 
-0.0015541096326092913 
-0.003487847821854858 
-0.0017704487468233128 
-0.001160526290895116 
-0.00020424933569732426 
-0.00020424933569744086 
-0.0011605262908954076 
-0.0017704487468236628 
-0.00014508948853761427 
-0.0007332589522534192 
-0.0014441963034821292 
-0.0014441963034821602 
-0.0007332589522534528 
-0.00014508948853761945 
-0.00032407718128586775 
-0.0007343416407798915 
-0.0013536197685816015 
-0.0013536197685815865 
-0.0007343416407798546 
-0.00032407718128582444 
-0.0004395397931700058 
-0.0007793042480055631 
-0.0012509258554138532 
-0.0012509258554138348 
-0.0007793042480055231 
-0.00043953979316996284 
-0.0004732086236345542 
-0.0007918880038076747 
-0.0012215076843794556 
-0.0012215076843794484 
-0.0007918880038076531 
-0.00047320862363452545 
-0.0004788487603389986 
-0.0007945482223498373 
-0.0012160273974850691 
-0.0012160273974850702 
-0.000794548222349834 
-0.0004788487603389897 
-0.00047925014154602996 
-0.0007948124595246672 
-0.0012155624697067263 
-0.0012155624697067218 
-0.0007948124595246605 
-0.0004792501415460254 
-0.0004791153193605444 
-0.0007947875769221289 
-0.001215654763401958 
-0.001215654763401949 
-0.0007947875769221244 
-0.00047911531936055364 
-0.0004790518752188774 
-0.0007947657434613129 
-0.0012157083189335463 
-0.0012157083189335502 
-0.000794765743461335 
-0.00047905187521891403 
-0.0004790364432527335 
-0.0007947596682146964 
-0.0012157221101632412 
-0.001215722110163258 
-0.0007947596682147108 
-0.0004790364432527284 
-0.0004790341796795832 
-0.0007947586010004466 
-0.0012157243091640779 
-0.0012157243091640662 
-0.0007947586010003931 
-0.0004790341796794997 
-0.0004790341270247833 
-0.0007947585252671726 
-0.001215724411224898 
-0.0012157244112248277 
-0.0007947585252670278 
-0.00047903412702463455 
-0.00047903421512123065 
-0.0007947585488841597 
-0.0012157243435598542 
-0.0012157243435596665 
-0.0007947585488838232 
-0.00047903421512093325 
-0.0004790342474501843 
-0.0007947585605114398 
-0.001215724315768264 
-0.0012157243157679225 
-0.000794758560510785 
-0.00047903424744955817 
-0.0004790342543358313 