<?xml version="1.0"?>
<VTKFile type="UnstructuredGrid" version="0.1" byte_order="LittleEndian" compressor="vtkZLibDataCompressor">
<UnstructuredGrid>
<Piece NumberOfPoints="306" NumberOfCells="250">
<PointData>
<DataArray type="Float64" Name="displacement" NumberOfComponents="3" format="ascii" >
0.0 0.0  0.
0.0 0.0  0.
0.0 0.0  0.
0.0 0.0  0.
0.0 0.0  0.
0.0 0.0  0.
0.009735699452315352 -0.006500806976949578  0.
0.0050628465290847545 -0.002295457149037927  0.
0.0016665949755404173 -0.0006519890886667386  0.
-0.0016665949755452828 -0.0006519890886675748  0.
-0.005062846529089748 -0.0022954571490406595  0.
-0.009735699452321844 -0.006500806976955217  0.
0.01958110286398967 -0.012839885811967005  0.
0.01133692401542888 -0.008936126586692574  0.
0.0036649913228486175 -0.00683018139168249  0.
-0.003664991322859325 -0.0068301813916838644  0.
-0.011336924015440052 -0.00893612658669685  0.
-0.019581102864001814 -0.012839885811974098  0.
0.029353461130659987 -0.023084836546177927  0.
0.017362888228920324 -0.019206267137034907  0.
0.005733780873617941 -0.017234847471589914  0.
-0.0057337808736349655 -0.017234847471591486  0.
-0.017362888228937695 -0.019206267137039577  0.
-0.0293534611306778 -0.023084836546185553  0.
0.03902267820763215 -0.03718444771482821  0.
0.023201254158519227 -0.033404575875862895  0.
0.007694688381511513 -0.03150480281761652  0.
-0.007694688381534898 -0.031504802817618104  0.
-0.023201254158542777 -0.033404575875867586  0.
-0.03902267820765586 -0.0371844477148359  0.
0.04850228581274722 -0.05513404219275118  0.
0.028893993335470217 -0.05143804238979466  0.
0.009596259166094225 -0.049589021074949634  0.
-0.009596259166123888 -0.049589021074951195  0.
-0.028893993335499933 -0.05143804238979927  0.
-0.04850228581277699 -0.05513404219275881  0.
0.05777643157832155 -0.07683853020418878  0.
0.03445842879521555 -0.07322538067450894  0.
0.011451538331130646 -0.07141879748009075  0.
-0.011451538331166517 -0.07141879748009226  0.
-0.03445842879525145 -0.0732253806745135  0.
-0.057776431578357434 -0.07683853020419636  0.
0.06684208836988927 -0.10221205131759989  0.
0.03989757408601868 -0.09868105688343601  0.
0.013264594045551345 -0.09691562068860642  0.
-0.013264594045593367 -0.0969156206886079  0.
-0.039897574086060726 -0.09868105688344049  0.
-0.0668420883699313 -0.10221205131760738  0.
0.07569920577041911 -0.131170213773445  0.
0.04521176194649962 -0.12772133261471483  0.
0.015035966705758871 -0.125996910799605  0.
-0.015035966705807004 -0.12599691079960654  0.
-0.04521176194654777 -0.12772133261471927  0.
-0.07569920577046736 -0.13117021377345248  0.
0.08434787480536544 -0.16362952486983265  0.
0.0504009469283617 -0.16026275469504453  0.
0.016765687454750273 -0.15857937345902248  0.
-0.016765687454804504 -0.15857937345902393  0.
-0.05040094692841596 -0.16026275469504905  0.
-0.08434787480541986 -0.1636295248698402  0.
0.09278813346479609 -0.19950661286082988  0.
0.055465100380215224 -0.19622195773481724  0.
0.01845373703740005 -0.19457963055888322  0.
-0.018453737037460418 -0.19457963055888478  0.
-0.05546510038027563 -0.1962219577348219  0.
-0.0927881334648566 -0.19950661286083754  0.
0.10101998976133694 -0.23871812154507488  0.
0.06040421433266564 -0.23551558255159175  0.
0.020100108188737406 -0.23391431301310753  0.
-0.020100108188803936 -0.23391431301310908  0.
-0.060404214332732194 -0.23551558255159644  0.
-0.10101998976140346 -0.2387181215450826  0.
0.10904344473878833 -0.281180692073421  0.
0.06521828745959393 -0.27806026944820356  0.
0.021704799246137416 -0.27650005810244277  0.
-0.021704799246210126 -0.2765000581024443  0.
-0.06521828745966662 -0.2780602694482081  0.
-0.10904344473886089 -0.2811806920734285  0.
0.11685849836530646 -0.326810964294828  0.
0.06990731967510214 -0.3237726580594633  0.
0.023267809997774152 -0.32225350493258803  0.
-0.02326780999785291 -0.3222535049325895  0.
-0.06990731967518092 -0.32377265805946764  0.
-0.1168584983653853 -0.32681096429483547  0.
0.12446515058322065 -0.37552557769420086  0.
0.07447131101275163 -0.37256938784615484  0.
0.02478914044738386 -0.37109129292053666  0.
-0.024789140447468595 -0.3710912929205381  0.
-0.07447131101283658 -0.3725693878461594  0.
-0.12446515058330578 -0.37552557769420836  0.
0.13186340137416563 -0.427241171699817  0.
0.07891026148781642 -0.4243670982370647  0.
0.026268790606396395 -0.4229300615055781  0.
-0.026268790606486823 -0.4229300615055793  0.
-0.07891026148790742 -0.42436709823706875  0.
-0.1318634013742572 -0.4272411716998242  0.
0.13905325073462615 -0.4818743857367978  0.
0.08322417110393943 -0.47908242865879164  0.
0.027706760478485203 -0.47768645011982547  0.
-0.027706760478581182 -0.47768645011982697  0.
-0.08322417110403633 -0.4790824286587962  0.
-0.13905325073472485 -0.48187438573680574  0.
0.14603469866425914 -0.5393418592319592  0.
0.08741303986164356 -0.5366320185386042  0.
0.02910305006437069 -0.5352770981919455  0.
-0.029103050064472846 -0.5352770981919479  0.
-0.08741303986174638 -0.5366320185386111  0.
-0.14603469866436541 -0.5393418592319698  0.
0.15280774516311363 -0.599560231612821  0.
0.09147686776093698 -0.5969325073041108  0.
0.030457659364124583 -0.5956186451497631  0.
-0.030457659364235824 -0.5956186451497688  0.
-0.09147686776104562 -0.5969325073041247  0.
-0.15280774516322634 -0.5995602316128387  0.
0.1593723902312244 -0.6624461423070667  0.
0.09541565480179821 -0.659900534383003  0.
0.03177058837773549 -0.6586277304209792  0.
-0.031770588377864145 -0.6586277304209915  0.
-0.09541565480191248 -0.659900534383032  0.
-0.15937239023133756 -0.6624461423070983  0.
0.16572863386860745 -0.7279162307424033  0.
0.09922940098421962 -0.725452739202985  0.
0.033041837105192054 -0.7242209934332917  0.
-0.03304183710535653 -0.7242209934333155  0.
-0.09922940098433924 -0.7254527392030393  0.
-0.16572863386870101 -0.727916230742455  0.
0.17187647607527837 -0.7958871363465473  0.
0.10291810630819939 -0.7935057611917697  0.
0.034271405546486146 -0.7923150736144071  0.
-0.03427140554671736 -0.7923150736144413  0.
-0.10291810630832435 -0.7935057611918475  0.
-0.17187647607530443 -0.7958871363466076  0.
0.17781591685125883 -0.8662754985472372  0.
0.10648177077373704 -0.8639762397770916  0.
0.03545929370161838 -0.8628266103920426  0.
-0.03545929370194579 -0.8628266103920612  0.
-0.10648177077386836 -0.863976239777133  0.
-0.17781591685112616 -0.8662754985472283  0.
0.18354695619656333 -0.9389979567722673  0.
0.10992039438083122 -0.9367808143867413  0.
0.03660550157062409 -0.9356722431939416  0.
-0.036605501571006435 -0.9356722431938425  0.
-0.1099203943809729 -0.9367808143865158  0.
-0.18354695619615238 -0.9389979567719349  0.
0.18906959411113633 -1.0139711504495283  0.
0.11323397712947861 -1.0118361244486218  0.
0.03771002915364232 -1.0107686114478989  0.
-0.037710029153759976 -1.0107686114474048  0.
-0.11323397712964127 -1.0118361244475063  0.
-0.18906959411043872 -1.0139711504482485  0.
0.19438383059468173 -1.0911117190070108  0.
0.1164225190196736 -1.0890588093907836  0.
0.03877287645105099 -1.0880323545817732  0.
-0.03877287644982917 -1.0880323545802977  0.
-0.11642251901987939 -1.0890588093874642  0.
-0.1943838305942811 -1.0911117190035897  0.
0.1994896656462945 -1.1703363018726158  0.
0.11948602005141078 -1.1683655086413096  0.
0.039794043463650765 -1.1673801120234415  0.
-0.039794043458413135 -1.167380112020056  0.
-0.11948602005169316 -1.1683655086337168  0.
-0.1994896656485853 -1.1703363018654678  0.
0.2043870992638565 -1.2515615384733596  0.
0.12242448022469689 -1.249672861627641  0.
0.04077353019271426 -1.2487285232004985  0.
-0.04077353017823925 -1.2487285231944982  0.
-0.12242448022507564 -1.2496728616142363  0.
-0.20438709927546977 -1.2515615384622785  0.
0.20907613144352316 -1.3347040682331588  0.
0.12523789953958853 -1.3328975077744594  0.
0.04171133663922534 -1.331994227539316  0.
-0.04171133660832383 -1.331994227532662  0.
-0.12523789953997022 -1.3328975077597511  0.
-0.20907613147878004 -1.3347040682255171  0.
0.2135567621807612 -1.4196805305680151  0.
0.12792627799627962 -1.4179560864986558  0.
0.042607462800558785 -1.417093864462802  0.
-0.04260746275129198 -1.4170938644670539  0.
-0.12792627799618386 -1.4179560865087857  0.
-0.21355676226304948 -1.4196805305945968  0.
0.21782899147720866 -1.5064075648780795  0.
0.13048961559525468 -1.5047652372000047  0.
0.043461908661044435 -1.5039440733862306  0.
-0.04346190862281425 -1.5039440734378116  0.
-0.1304896155932321 -1.5047652373169758  0.
-0.21782899162663982 -1.5064075650247757  0.
0.22189281936293412 -1.594801810540628  0.
0.1329279123374676 -1.5932415992496496  0.
0.044274674171122616 -1.5924614937120467  0.
-0.044274674272450236 -1.5924614938979016  0.
-0.13292791233016135 -1.5932415996685891  0.
-0.22189281953948345 -1.5948018109941906  0.
0.2257482459506289 -1.68477990692276  0.
0.13524116822425297 -1.683301811991944  0.
0.04504575921219789 -1.6825627648305168  0.
-0.045045759818796875 -1.6825627653124655  0.
-0.13524116820563842 -1.683301813074684  0.
-0.22574824588888961 -1.6847799079911554  0.
0.229395271538763 -1.7762584934690262  0.
0.1374293832560515 -1.7748625148115091  0.
0.04577516356290361 -1.774164526149249  0.
-0.045775165483225265 -1.7741645271293087  0.
-0.13742938321922754 -1.7748625170060583  0.
-0.22939527037638363 -1.7762584954265355  0.
0.23283389674675198 -1.869154209988745  0.
0.13949255742773192 -1.8678403473939067  0.
0.046462886945104774 -1.8671834172087516  0.
-0.04646289154388167 -1.867183418663324  0.
-0.13949255737607777 -1.867840350632556  0.
-0.23283389238252736 -1.8691542123464218  0.
0.23606412252564335 -1.9633836973602259  0.
0.14143069071632558 -1.96215195042901  0.
0.04710892938389794 -1.9615360779953916  0.
-0.04710893797565318 -1.9615360787835971  0.
-0.1414306906991824 -1.9621519521196673  0.
-0.23606411095621507 -1.9633836967278215  0.
0.23908594950158243 -2.0588635988813295  0.
0.14324378305572355 -2.0577139670959115  0.
0.047713292420130775 -2.057139149604431  0.
-0.047713303237329245 -2.0571391452507966  0.
-0.14324378325444312 -2.0577139571434313  0.
-0.23908592547137172 -2.058863584127725  0.
0.24189937527497946 -2.1555105620660817  0.
0.14493183429791995 -2.1544430454060843  0.
0.04827598213279823 -2.153909275291794  0.
-0.048275981247634596 -2.1539092536672655  0.
-0.14493183518783942 -2.154442996546829  0.
-0.24189933832933988 -2.1555105058854345  0.
0.244504386937418 -2.253241238896603  0.
0.1464948441869317 -2.2522558399582624  0.
0.04879701504203177 -2.2517631012815245  0.
-0.04879695547755556 -2.251763036674221  0.
-0.14649484674507296 -2.2522556945855596  0.
-0.24450436244984444 -2.253241088871295  0.
0.24690094489272665 -2.351972277537244  0.
0.14793281245790035 -2.3510690068928493  0.
0.04927642625598497 -2.3506172745583527  0.
-0.04927619080345764 -2.350617126152587  0.
-0.1479328181593421 -2.3510686739886286  0.
-0.24690103747353725 -2.351971963798443  0.
0.24908895639660322 -2.4516202877298907  0.
0.14924573939665878 -2.450799174452588  0.
0.04971427178228169 -2.4503884297903284  0.
-0.049713631292618285 -2.4503881661551974  0.
-0.1492457491359447 -2.450798585486881  0.
-0.24908945622882522 -2.4516198000122906  0.
0.2510682523620162 -2.5521017440413405  0.
0.15043362778765457 -2.5513628507075814  0.
0.05011059582581824 -2.5509931476308676  0.
-0.05010923363602797 -2.550992853670096  0.
-0.1504336374956972 -2.5513622004612806  0.
-0.2510697874437068 -2.5521014029622773  0.
0.2528386307552897 -2.65333277630879  0.
0.15149648833425775 -2.6526762028172257  0.
0.05046528741996599 -2.652347855314811  0.
-0.05046311358073002 -2.652348034461109  0.
-0.15149647720401005 -2.65267663216214  0.
-0.2528422288598953 -2.6533339255447648  0.
0.25440014592070215 -2.7552288146620207  0.
0.152434352779216 -2.7546546492681077  0.
0.05077767130151619 -2.754368637092827  0.
-0.05077596292845557 -2.7543708857766656  0.
-0.15243425710253117 -2.7546597412785303  0.
-0.2544067016405642 -2.7552352170462435  0.
0.25575407316190807 -2.8577042663110848  0.
0.153247287191256 -2.857212317089014  0.
0.05104558673477856 -2.856971038294256  0.
-0.05104995322328195 -2.8569791455322666  0.
-0.153246964477686 -2.8572306358564337  0.
-0.2557618505138422 -2.8577240899224794  0.
0.256905256903464 -2.960672739899343  0.
0.15393531426969567 -2.960262110337224  0.
0.05126372434545866 -2.9600701807926053  0.
-0.05129016423750947 -2.960091338793754  0.
-0.15393450099877296 -2.9603094543906034  0.
-0.2569027269580879 -2.960719628787036  0.
0.25786759533215303 -3.0640508744272448  0.
0.15449759688347658 -3.0637177861566  0.
0.05142128333619809 -3.063583564259933  0.
-0.051505125626886285 -3.0636261002905276  0.
-0.15449618583143698 -3.0638142866783613  0.
-0.2578167164883383 -3.064136483798705  0.
0.25867228817806853 -3.1677656090078816  0.
0.15492838788532975 -3.167508224056644  0.
0.051501564025728384 -3.1674370070145184  0.
-0.05170224591021593 -3.1675019791450274  0.
-0.1549271652742843 -3.167648703710804  0.
-0.2584818397980904 -3.1678718359315474  0.
0.2593955115113138 -3.271818324277583  0.
0.1552040921258444 -3.2715958641192957  0.
0.05148946042304823 -3.2715983771180475  0.
-0.05185895388578344 -3.2716175536967516  0.
-0.1552153628185923 -3.271675276639419  0.
-0.2588781718583326 -3.2717846167145863  0.
0.2601068317411191 -3.3762531431270912  0.
0.1552468403755132 -3.3762040448901436  0.
0.05149419797686251 -3.3759974019573105  0.
-0.05190835826943287 -3.3757879306012715  0.
-0.15534736589191173 -3.375691384232641  0.
-0.2590282699014916 -3.3756912026616526  0.
0.2609955418558137 -3.4832490122898454  0.
0.1555832773823386 -3.481257612912002  0.
0.05171315678003657 -3.4801681571425642  0.
-0.05181687472782314 -3.4796480891399475  0.
-0.1553556935251348 -3.479476615916547  0.
-0.2590487736757528 -3.479455323813683  0.
</DataArray>
<DataArray type="Float64" Name="Nodal_sigma_xx" NumberOfComponents="1" format="ascii" >
0.004714319086868215 
0.003453571901952565 
0.0010964123585176328 
-0.0010964123585209358 
-0.00345357190195608 
-0.004714319086871938 
0.004602860067019067 
0.0034446786572445527 
0.0011432486237341665 
-0.0011432486237375927 
-0.0034446786572480386 
-0.004602860067022598 
0.004461729828193159 
0.0033895344342723555 
0.0011586695201748856 
-0.001158669520178447 
-0.0033895344342758055 
-0.004461729828196499 
0.0043895131067219935 
0.0033040519733088004 
0.0011092954199469075 
-0.0011092954199504626 
-0.003304051973312246 
-0.004389513106725359 
0.004301534084663014 
0.0032287061643197345 
0.0010779391219873443 
-0.0010779391219908605 
-0.003228706164323188 
-0.004301534084666422 
0.004209493820031025 
0.0031573708653525228 
0.0010526239553361376 
-0.0010526239553396237 
-0.003157370865355984 
-0.004209493820034466 
0.004116121193143027 
0.003087067062957393 
0.0010290064663850116 
-0.0010290064663884804 
-0.0030870670629608533 
-0.00411612119314648 
0.004022574487600126 
0.0030169098500347847 
0.0010056226062338605 
-0.0010056226062373093 
-0.0030169098500382394 
-0.0040225744876035835 
0.003929017257414524 
0.0029467571136668463 
0.0009822484849587277 
-0.0009822484849621603 
-0.0029467571136702906 
-0.003929017257417975 
0.003835466335829483 
0.0028765987265682736 
0.0009588655586526714 
-0.000958865558656104 
-0.002876598726571705 
-0.003835466335832923 
0.0037419177832504077 
0.0028064382648217293 
0.0009354793731956659 
-0.000935479373199095 
-0.0028064382648251493 
-0.0037419177832538264 
0.003648369776413573 
0.0027362773549636015 
0.0009120924667559556 
-0.0009120924667593907 
-0.0027362773549670246 
-0.0036483697764169865 
0.0035548218393213057 
0.0026661163906519627 
0.0008887054709904559 
-0.0008887054709938802 
-0.002666116390655401 
-0.003554821839324749 
0.003461273901168644 
0.002595955428602623 
0.0008653184780174585 
-0.0008653184780208511 
-0.002595955428606067 
-0.0034612739011721174 
0.003367725959300423 
0.002525794469882418 
0.0008419314902313828 
-0.0008419314902346959 
-0.0025257944698858386 
-0.003367725959303933 
0.0032741780162327903 
0.002455633512185356 
0.0008185445040681686 
-0.0008185445040713586 
-0.002455633512188756 
-0.0032741780162363785 
0.003180630072928836 
0.002385472554681097 
0.0007951575182158958 
-0.0007951575182190314 
-0.0023854725546845028 
-0.0031806300729325093 
0.0030870821296009243 
0.002315311597194647 
0.000771770532393321 
-0.0007717705323966275 
-0.002315311597197944 
-0.0030870821296043603 
0.0029935341862763927 
0.0022451506397054375 
0.0007483835465659765 
-0.0007483835465703062 
-0.0022451506397083002 
-0.002993534186278517 
0.002899986242955491 
0.0021749896822148766 
0.0007249965607346665 
-0.0007249965607422544 
-0.002174989682216487 
-0.0028999862429533937 
0.002806438299638227 
0.0021048287247246557 
0.0007016095749003336 
-0.0007016095749157073 
-0.002104828724723449 
-0.0028064382996259006 
0.0027128903563256837 
0.002034667767235427 
0.0006782225890625547 
-0.0006782225890923916 
-0.0020346677672293386 
-0.0027128903562939548 
0.0026193424130163535 
0.001964506809746486 
0.000654835603223065 
-0.0006548356032707991 
-0.001964506809735074 
-0.0026193424129590396 
0.002525794469695501 
0.0018943458522529908 
0.0006314486173939375 
-0.0006314486174388446 
-0.0018943458522454226 
-0.002525794469635762 
0.0024322465263121647 
0.0018241848947399973 
0.0006080616316155685 
-0.0006080616315562026 
-0.001824184894775335 
-0.0024322465263749574 
0.0023386985827372883 
0.0017540239371722493 
0.0005846746459879817 
-0.0005846746455228475 
-0.0017540239373601695 
-0.0023386985833058907 
0.002245150638713096 
0.0016838629794843412 
0.0005612876607052884 
-0.0005612876591446372 
-0.0016838629800653019 
-0.00224515064068634 
0.002151602693870546 
0.001613702021596138 
0.0005379006760321593 
-0.000537900672156902 
-0.0016137020229708816 
-0.0021516026988853713 
0.0020580547480564962 
0.0015435410635230597 
0.0005145136920298967 
-0.0005145136844983014 
-0.0015435410660614459 
-0.002058054758056118 
0.001964506802563284 
0.0014733801057416175 
0.0004911267075756332 
-0.0004911266972917178 
-0.001473380108860417 
-0.0019645068169060823 
0.001870958863393102 
0.0014032191500930147 
0.0004677397178270984 
-0.000467739715379476 
-0.0014032191495267194 
-0.001870958869433217 
0.0017774109480430628 
0.0013330582015297285 
0.00044435270908347224 
-0.00044435275246255176 
-0.0013330581831080789 
-0.001777410898140504 
0.0016838630959516059 
0.0012628972704779732 
0.00042096565119964773 
-0.0004209658386863135 
-0.001262897199178411 
-0.0016838628635892404 
0.001590315375471642 
0.001192736373316667 
0.0003975784936210302 
-0.00039757902460683226 
-0.0011927361813596313 
-0.00159031469742523 
0.0014967678578942307 
0.0011225755220761902 
0.0003741911886737463 
-0.00037419235790136206 
-0.0011225751176235392 
-0.0014967663283550112 
0.0014032204766706016 
0.0010524146804438994 
0.0003508038059385799 
-0.0003508057689780024 
-0.0010524140442763784 
-0.0014032178229367892 
0.00130967259460612 
0.00098225363977383 
0.0003274168725667491 
-0.0003274187305367174 
-0.0009822531698721517 
-0.0013096698184789108 
0.0012161219884676694 
0.000912091747169388 
0.00030403215254078944 
-0.0003040294777513716 
-0.0009120931467768859 
-0.0012161245388405562 
0.0011225629979332778 
0.0008419274513902266 
0.00028065402536093744 
-0.0002806336281455698 
-0.0008419355243297064 
-0.001122587646493574 
0.0010289843188048698 
0.0007717578830655951 
0.0002572910100500934 
-0.00025722265921117245 
-0.0007717831694545005 
-0.00102907044771279 
0.0009353696924891013 
0.0007015795167350928 
0.00023395478407721982 
-0.00023378493109545276 
-0.000701639630323653 
-0.0009355891712830452 
0.0008417120119703561 
0.0006313930775888075 
0.00021064839524212304 
-0.00021031775028633145 
-0.0006315044012290668 
-0.0008421506546084834 
0.0007480668244419862 
0.0005612197966073692 
0.0001873239393896619 
-0.000186870754804131 
-0.0005613573516122915 
-0.0007486980836097497 
0.0006546937171441666 
0.0004911420627628626 
0.00016377262272376921 
-0.00016365805171339708 
-0.0004911194812972695 
-0.000654968022101765 
0.00056236171357099 
0.0004213753180244016 
0.00013939498721030926 
-0.00014127855007655294 
-0.0004205758439969772 
-0.000560193535898043 
0.0004728243764532312 
0.00035235030868221745 
0.00011281834103476497 
-0.00012100100019527002 
-0.0003492305292623321 
-0.00046269861697579803 
0.0003894812108653841 
0.00028448063788924467 
8.141332258080465e-05 
-0.00010460317986536985 
-0.0002761539280141868 
-0.0003597549160491299 
0.00031619045860785985 
0.00021732832257858844 
4.1522522997805545e-05 
-9.247356540857042e-05 
-0.0001996177523023578 
-0.00024970951434128075 
0.0002561212403516536 
0.00014442405216421022 
-8.246632128111102e-06 
-7.505424634600871e-05 
-0.00011981398804824363 
-0.0001387396116374589 
0.00015565456915012077 
6.522987621552607e-05 
-2.9939799704796334e-05 
-4.043598011792277e-05 
-4.788748487053744e-05 
-4.9587792195753385e-05 
8.15371287800331e-05 
2.5399983272781642e-05 
-2.4421991486333267e-05 
-1.8101399851347672e-05 
-1.634657290380889e-05 
-1.4597166843119159e-05 
</DataArray>
<DataArray type="Float64" Name="Nodal_sigma_yy" NumberOfComponents="1" format="ascii" >
0.0011421582204562302 
0.0008805638780514263 
0.00030948476782302224 
-0.00030948476782414834 
-0.0008805638780524838 
-0.001142158220457249 
0.0005396565180983635 
0.0004546747843805375 
0.00018484652533114952 
-0.00018484652533194012 
-0.00045467478438118014 
-0.0005396565180988925 
-3.1619896034635795e-05 
5.923213429631164e-06 
2.1733161446872015e-05 
-2.1733161447145722e-05 
-5.923213429767096e-06 
3.161989603460316e-05 
-3.971420463966236e-06 
-1.3112507666683803e-05 
-1.1126797434714204e-05 
1.112679743467467e-05 
1.3112507666665019e-05 
3.971420463953659e-06 
-4.315791151582142e-06 
-5.683552525953084e-06 
-3.525656950156036e-06 
3.5256569501742235e-06 
5.683552525959155e-06 
4.315791151581817e-06 
-6.517609787417764e-07 
-1.1992686049012741e-06 
-8.733881155242399e-07 
8.733881155384429e-07 
1.1992686049016671e-06 
6.517609787387406e-07 
-1.0781100834409037e-07 
-1.6113876662850548e-07 
-1.0723326245819164e-07 
1.0723326245048702e-07 
1.6113876662003515e-07 
1.0781100833563359e-07 
6.169919732567329e-09 
3.5612557024969523e-09 
4.76295834011002e-10 
-4.762958519681005e-10 
-3.561255719844187e-09 
-6.169919740156744e-09 
5.396114563104189e-09 
8.358176020422498e-09 
5.660118737261041e-09 
-5.66011875122692e-09 
-8.358176034422259e-09 
-5.396114569609402e-09 
1.7904900396527312e-09 
2.7213588575799533e-09 
1.8261138323190243e-09 
-1.8261138302861453e-09 
-2.721358846900562e-09 
-1.7904900440979601e-09 
3.2267033489574715e-10 
5.277335083145838e-10 
3.6639834681288157e-10 
-3.6639830511853177e-10 
-5.277334765610127e-10 
-3.226703309926193e-10 
3.096551617551291e-11 
5.3349567412418544e-11 
3.7866821078091266e-11 
-3.7866774640356966e-11 
-5.3349546107845855e-11 
-3.0965519428119426e-11 
-5.19831020676792e-12 
-6.624496090568144e-12 
-4.025333170764147e-12 
4.025346025336154e-12 
6.624496077015617e-12 
5.1983157361989996e-12 
-3.1154494132060173e-12 
-4.720517962522423e-12 
-3.1627916804381328e-12 
3.1627871064602176e-12 
4.720519399090302e-12 
3.1154677362227323e-12 
-8.295118606761742e-13 
-1.297903164066902e-12 
-8.831577911474695e-13 
8.831553787976357e-13 
1.2979082598171127e-12 
8.294846472016448e-13 
-1.3471033099773932e-13 
-2.205115430531368e-13 
-1.531629030960928e-13 
1.5319200037189687e-13 
2.2054206334429227e-13 
1.346870748611395e-13 
-7.28356177454037e-15 
-1.4365326419726876e-14 
-1.0644124335190339e-14 
1.0970570833062146e-14 
1.4576217294802463e-14 
7.370135318013338e-15 
3.995285005609084e-15 
5.755500785166456e-15 
4.1772276826793076e-15 
-2.702780490734802e-15 
-4.9459676805529984e-15 
-3.647635579001607e-15 
2.0658930295625044e-15 
3.54502939590301e-15 
3.719287790075743e-15 
4.400641092847102e-16 
-1.3460505496679098e-15 
-1.1578194999972702e-15 
1.3325928902019335e-15 
2.8922448203766438e-15 
4.8043844293535476e-15 
4.100330643595773e-15 
1.823763579392179e-15 
6.037379797485531e-16 
1.6667982098705902e-15 
3.886593737817412e-15 
7.083207989328627e-15 
7.042821458403542e-15 
3.809561173462317e-15 
1.5935061430105701e-15 
1.6396931555584526e-15 
3.3215617756265914e-15 
5.340386878376069e-15 
5.360742774164484e-15 
3.3606201588903817e-15 
1.6770981305092025e-15 
-1.6483125628297124e-15 
-6.411009418651192e-15 
-1.501479570829769e-14 
-1.4947412543277715e-14 
-6.360783753010801e-15 
-1.6826275615888786e-15 
-1.5322541412760016e-14 
-4.3059509408603647e-14 
-8.821618430318243e-14 
-8.81059073897135e-14 
-4.2968395768533396e-14 
-1.5360867959557378e-14 
-5.315344518697085e-14 
-1.4028059584173663e-13 
-2.778736120460099e-13 
-2.7777503096347664e-13 
-1.4017315140644332e-13 
-5.313571848145071e-14 
-1.3464029153739676e-13 
-3.4231593796542337e-13 
-6.632560423596541e-13 
-6.631329583080227e-13 
-3.4216181862660455e-13 
-1.3457822096302197e-13 
-2.6775581534951853e-13 
-6.534328200052952e-13 
-1.234338155910739e-12 
-1.2342560547012275e-12 
-6.53307838599862e-13 
-2.6767005495767493e-13 
-3.822207307602188e-13 
-8.614756924854063e-13 
-1.540796519371038e-12 
-1.5408371701762427e-12 
-8.615402499485142e-13 
-3.822685440760254e-13 
-1.5443196851525065e-13 
-8.946678440409014e-14 
1.803391911850286e-13 
1.8030760702049137e-13 
-8.953341540385296e-14 
-1.5450206218570184e-13 
1.3560876596999116e-12 
4.0989963769684674e-12 
8.703070243507504e-12 
8.703187743917947e-12 
4.0991322003956256e-12 
1.3561243057333416e-12 
6.264487030244875e-12 
1.698187299331924e-11 
3.413851163496201e-11 
3.413872016769736e-11 
1.6982088383633333e-11 
6.264500745402357e-12 
1.8224794557600982e-11 
4.7214636477029785e-11 
9.251907931349349e-11 
9.251936868705333e-11 
4.7215089958140954e-11 
1.8225122772703647e-11 
4.1013621128850944e-11 
1.0235661243687992e-10 
1.9611147773800682e-10 
1.9611262007374454e-10 
1.0235837972030239e-10 
4.101487102422044e-11 
7.093307571089807e-11 
1.6806388935695568e-10 
3.1135270993591505e-10 
3.1135618296751044e-10 
1.6806905279526324e-10 
7.093645652432243e-11 
7.353667951263618e-11 
1.4740411771366852e-10 
2.3949076867425725e-10 
2.394910433094438e-10 
1.4740540096858362e-10 
7.353869675209325e-11 
-7.083979640409334e-11 
-2.759658785736756e-10 
-6.466515969426285e-10 
-6.467228110614861e-10 
-2.7606690703254905e-10 
-7.089942508412515e-11 
-6.660122936551043e-10 
-1.874997976535574e-09 
-3.845566454511296e-09 
-3.846089763765028e-09 
-1.875761699299803e-09 
-6.664931206760982e-10 
-2.317058372480838e-09 
-6.126923923078901e-09 
-1.2149225088265499e-08 
-1.2151516074188605e-08 
-6.130315480133632e-09 
-2.3192595147440882e-09 
-5.889172031493025e-09 
-1.4984898812127486e-08 
-2.905253826463581e-08 
-2.9057969676486848e-08 
-1.499325835739514e-08 
-5.895028298326258e-09 
-1.1750118514839477e-08 
-2.868325547205418e-08 
-5.419376195492035e-08 
-5.4184498452574505e-08 
-2.867125590746351e-08 
-1.174464639034983e-08 
-1.689884581099481e-08 
-3.810390022252727e-08 
-6.80547093641066e-08 
-6.786880896109118e-08 
-3.7838609658793067e-08 
-1.674006548955725e-08 
-7.60576189213298e-09 
-5.4010791929195675e-09 
6.071307281689307e-09 
7.2126512450703e-09 
-3.716058762167105e-09 
-6.518408957390041e-09 
5.7025471243850843e-08 
1.7491948655983411e-07 
3.763880884443826e-07 
3.8081600248629606e-07 
1.8143748655460954e-07 
6.120564314957477e-08 
2.675174187513206e-07 
7.358792749392105e-07 
1.487625551797233e-06 
1.4946750196959078e-06 
7.477112250368095e-07 
2.7708238314916886e-07 
8.235675733005621e-07 
2.095256123414992e-06 
4.068651791269817e-06 
4.030020340008759e-06 
2.0380875042508543e-06 
7.864932374944021e-07 
1.9476396657058613e-06 
4.817669879516681e-06 
8.82722255667216e-06 
8.356929134777762e-06 
4.171208075849537e-06 
1.5953029021603657e-06 
4.67896040627664e-06 
9.255091795864731e-06 
1.4822181100625512e-05 
1.2474032155109619e-05 
5.586525927972341e-06 
2.0381265615236478e-06 
5.595557016156889e-06 
1.2744437977037987e-05 
1.466597840091457e-05 
5.7252950458888296e-06 
1.077628442697619e-06 
1.4330465752763485e-07 
2.0745342043987066e-05 
-7.03766292883236e-07 
-3.064268846327697e-05 
-3.2795346003603265e-05 
-1.6421197613874646e-05 
-6.384205517343168e-06 
-0.00024766043188561014 
-0.00023525799318554745 
-0.00018448490782386134 
-0.00010595295005919977 
-3.895769704734604e-05 
-1.2123755138530444e-05 
-0.0005323058667671882 
-0.00045553415663148996 
-0.0002961772749176994 
-0.00014884925735665844 
-4.866027278965121e-05 
-1.3214134205592646e-05 
</DataArray>
<DataArray type="Float64" Name="Nodal_sigma_xy" NumberOfComponents="1" format="ascii" >
-0.00038753864687564906 
-0.00017267884806941892 
0.00011644817150333923 
0.00011644817150317757 
-0.0001726788480699037 
-0.0003875386468762953 
-0.00019671652742657853 
-0.00012894736565657232 
-2.269437063423718e-05 
-2.2694370634352978e-05 
-0.00012894736565686207 
-0.00019671652742692645 
-1.6121054282589054e-05 
-8.147321691838371e-05 
-0.0001604662559446783 
-0.00016046625594470806 
-8.147321691841438e-05 
-1.6121054282590864e-05 
-3.600857569917725e-05 
-8.159351564356454e-05 
-0.0001504021965112714 
-0.00015040219651125502 
-8.159351564352463e-05 
-3.60085756991302e-05 
-4.883775479748474e-05 
-8.658936089088657e-05 
-0.0001389917617147842 
-0.0001389917617147659 
-8.658936089084833e-05 
-4.883775479744486e-05 
-5.257873596023003e-05 
-8.798755598001334e-05 
-0.0001357230760442727 
-0.00013572307604426136 
-8.798755597999017e-05 
-5.257873596020635e-05 
-5.3205417816283134e-05 
-8.828313581803331e-05 
-0.0001351141552782265 
-0.0001351141552782192 
-8.828313581801843e-05 
-5.320541781626793e-05 
-5.325001572817059e-05 
-8.831249550411816e-05 
-0.0001350624966361802 
-0.00013506249663617647 
-8.831249550410708e-05 
-5.3250015728155926e-05 
-5.3235035485337285e-05 
-8.830973077049499e-05 
-0.00013507275149119086 
-0.00013507275149118975 
-8.830973077048756e-05 
-5.323503548532472e-05 
-5.3227986136251796e-05 
-8.830730483038669e-05 
-0.00013507870210578747 
-0.00013507870210579073 
-8.830730483038651e-05 
-5.322798613624494e-05 