<?xml version="1.0"?>
<VTKFile type="UnstructuredGrid" version="0.1" byte_order="LittleEndian" compressor="vtkZLibDataCompressor">
<UnstructuredGrid>
<Piece NumberOfPoints="759" NumberOfCells="694">
<PointData>
<DataArray type="Float64" Name="displacement" NumberOfComponents="3" format="ascii" >
-0.021473234378459737 0.2976327769563581  0.
0.0 0.5  0.
0.0 0.5  0.
0.2970447598459709 -0.000506560125116731  0.
0.09316613492781901 -0.0003056068278162647  0.
-0.09332721854196249 0.00011832424188029386  0.
-0.29713171965694174 0.00017087546368648785  0.
0.0 0.5  0.
0.0 -0.5  0.
-0.02152001680497094 -0.29772509331320374  0.
0.0 -0.5  0.
0.0 -0.5  0.
0.09234072074199441 0.03548729625320187  0.
0.08983034236004753 0.07095275644502629  0.
0.08576196568939337 0.10564168730292689  0.
0.08034562462017324 0.13891221266905995  0.
0.07382754530671845 0.17010683865897802  0.
0.06615867227441617 0.19970072958009563  0.
0.057775561921368644 0.2266161889515513  0.
0.04877763063678138 0.25058145508338486  0.
0.03924501423242176 0.2711801962093102  0.
0.02928073727838688 0.2878288454471061  0.
0.019048382412070377 0.2999112343953413  0.
0.00873511598667056 0.3069801264703591  0.
-0.0014963432511570479 0.3088376786480659  0.
-0.011486989363615821 0.3057241054899357  0.
-0.007169645563715372 0.2991874528686547  0.
-0.004986039379066669 0.303290877249377  0.
-0.005695335370580487 0.3109596982086661  0.
-0.007357657087236916 0.3220084321331974  0.
-0.009114418170276698 0.3353852445561831  0.
-0.010532195145946192 0.35157585923328416  0.
-0.011227458038857531 0.37061990937265593  0.
-0.010993384448903569 0.3912302413213675  0.
-0.009661372994236644 0.4134927397822365  0.
-0.007427695597362727 0.43585955375496976  0.
-0.004672012915116311 0.4578866383183222  0.
-0.0019336453731871187 0.47940430330991674  0.
0.0 0.5  0.
0.0 0.5  0.
0.0 0.5  0.
0.0 0.5  0.
0.0 0.5  0.
0.0 0.5  0.
0.0 0.5  0.
0.0 0.5  0.
0.0 0.5  0.
0.0 0.5  0.
0.0 0.5  0.
0.09465241038200076 0.41922643383232977  0.
0.1428870727142547 0.35730606658901526  0.
0.1811758019852431 0.3037860120020143  0.
0.21100317559567514 0.25388568688753343  0.
0.2370330607403101 0.20375855174381222  0.
0.25788834337910865 0.15774668236078443  0.
0.27452292636559095 0.1149084955669953  0.
0.2868618616540494 0.07472726801814339  0.
0.2944874154643776 0.03660022609681693  0.
0.280903656058299 -0.0003664118458833181  0.
0.26308456293876864 -0.00018767713248194273  0.
0.2445248572134073 1.5207617756813237e-05  0.
0.22669479754885824 0.00020000207092895283  0.
0.20933769659126314 0.0002827505055958048  0.
0.1935448613451381 0.00032425833413204957  0.
0.17894717355456746 0.00031562482377425874  0.
0.16521245722789588 0.00028043247494262576  0.
0.15258534545762167 0.00019384827518220335  0.
0.14038740934648788 0.00013052307560059781  0.
0.12566316818313353 1.974528092550343e-05  0.
0.0 0.5  0.
0.0 0.5  0.
0.0 0.5  0.
0.0 0.5  0.
0.0 0.5  0.
0.0 0.5  0.
0.0 0.5  0.
-0.03152408766680035 0.28479430066622113  0.
-0.0414783207193325 0.26720864903118896  0.
-0.05143507727337738 0.24483621120185123  0.
-0.06101492489715822 0.21783844420809625  0.
-0.07009883461387893 0.18662433447211832  0.
-0.07803601352007188 0.15252084374790975  0.
-0.0846296523297124 0.11589696606566918  0.
-0.08938770273834598 0.07779698463164585  0.
-0.0923221068098998 0.03922840366056633  0.
-0.1237280765996682 -0.0001019316536331435  0.
-0.13748113734608866 -7.734937093506376e-05  0.
-0.14870768415950467 -0.00015470198253736007  0.
-0.1602645067592445 -0.0002904262133531039  0.
-0.17110678637449092 -0.00031938579453555735  0.
-0.18370946261291418 -0.00040208370917756186  0.
-0.19791049758696316 -0.0004522930521619773  0.
-0.2130115685298399 -0.0004034714669909915  0.
-0.22925709560917373 -0.0002911168499002614  0.
-0.24643715423081897 -0.00014953552660967252  0.
-0.2640078580060944 -2.514613841524512e-05  0.
-0.28126462402775737 8.303560806449824e-05  0.
-0.2942959811613679 0.03872911733719045  0.
-0.28604495498257393 0.07822546072072482  0.
-0.27298842866435186 0.11946365159640768  0.
-0.2557607926811016 0.16291000844637094  0.
-0.23469742246992684 0.20867015716790493  0.
-0.20954460720249068 0.25660787429373816  0.
-0.17948502468259586 0.30639046417520543  0.
-0.14162965700860394 0.3588301203540995  0.
-0.09388815008052147 0.4199129736988863  0.
0.0 -0.5  0.
0.0 -0.5  0.
0.0 -0.5  0.
0.0 -0.5  0.
0.0 -0.5  0.
0.0 -0.5  0.
0.0 -0.5  0.
0.0 -0.5  0.
0.0 -0.5  0.
0.0 -0.5  0.
0.0 -0.5  0.
-0.0018850307391835065 -0.479650679716009  0.
-0.004604494291183084 -0.4581193400560089  0.
-0.007376819220178106 -0.43586598434499507  0.
-0.00951879326923213 -0.41396339244355274  0.
-0.010816763802977308 -0.3919762721959276  0.
-0.011095805345191034 -0.37088419710492176  0.
-0.010394830061539139 -0.3522680039690169  0.
-0.009040570743084135 -0.33667756708344093  0.
-0.007346847447169791 -0.3225519717921644  0.
-0.005648631473841093 -0.3109999396250379  0.
-0.004971860885118739 -0.30323085691559853  0.
-0.0073097601495733106 -0.2991897576930485  0.
-0.011559103482847803 -0.30571841774720954  0.
-0.00143159698729252 -0.3089112720501598  0.
0.008761241660016173 -0.3069864372312166  0.
0.019002134948487685 -0.2999671839321108  0.
0.02912851237516826 -0.28805496831053035  0.
0.03903086377857457 -0.27158764946350483  0.
0.04856827322592396 -0.2510735493553765  0.
0.057622745586749374 -0.227041018859015  0.
0.06595253056339516 -0.2001915961299776  0.
0.07347568058240679 -0.17110089489687821  0.
0.08015705046177299 -0.13940372027483636  0.
0.08566520613906045 -0.10596334354100724  0.
0.08976001344184689 -0.07133978762319897  0.
0.09229376438023833 -0.03601776419930026  0.
0.2942967317064189 -0.03793538032080828  0.
0.28661359330856623 -0.0756483000447013  0.
0.2744230699654452 -0.11519510529986912  0.
0.25790002677655127 -0.15773223566799308  0.
0.23753376166950008 -0.20275104698344823  0.
0.21249143990812464 -0.2512294309312397  0.
0.18208392251227135 -0.3024057462157886  0.
0.14353834178737523 -0.35643232983699774  0.
0.09527539751648462 -0.4185305158169622  0.
-0.09236155804933313 -0.03924868990892898  0.
-0.08940397869803074 -0.07827127811258869  0.
-0.08457738163252726 -0.11643106076052749  0.
-0.07803629712040595 -0.1529970446433882  0.
-0.06992805929486844 -0.1876253428164385  0.
-0.060939634324668764 -0.21830658673719097  0.
-0.051303686829845783 -0.2450375822953186  0.
-0.041400180234794824 -0.26730161437269045  0.
-0.03145051425722235 -0.28490295126919996  0.
0.0 -0.5  0.
0.0 -0.5  0.
0.0 -0.5  0.
0.0 -0.5  0.
0.0 -0.5  0.
0.0 -0.5  0.
0.0 -0.5  0.
-0.09359445004604643 -0.42027770722197505  0.
-0.14130604380356854 -0.35926868189124367  0.
-0.179156353016287 -0.3068755373161134  0.
-0.20919358034644386 -0.2572110367125157  0.
-0.23436580572894666 -0.2093277189861564  0.
-0.2555575039074011 -0.16337726243178236  0.
-0.27293205744730714 -0.11962835702785259  0.
-0.2860853353849432 -0.07810846885520822  0.
-0.2943539940897087 -0.03843307887647118  0.
0.12267410989902981 0.29934102744809343  0.
-0.00389840386326659 0.4200837751965446  0.
0.00037296400614854347 0.42209846102810705  0.
0.004788890552527449 0.4189776515413141  0.
0.01093096506872936 0.4109727761314779  0.
0.020190511583727214 0.39909743340511045  0.
0.03377347349540821 0.3835630282870014  0.
0.053054463425941625 0.36392861681551886  0.
0.08047841573315333 0.3381084229912631  0.
0.1163681077773289 0.2628350135759592  0.
0.10859445578344577 0.23576257308414383  0.
0.09993307750455999 0.21375447446151172  0.
0.09070511106518181 0.19556855483144578  0.
0.08121638828906706 0.1810391713129822  0.
0.07199356772253666 0.17072425965882262  0.
0.06409237880786364 0.16614339407866813  0.
0.059786736830386086 0.17079626954126093  0.
0.030766640540691635 0.46256965002508643  0.
0.06292513114928285 0.41794900104943533  0.
0.0936264371639785 0.36523187122736267  0.
0.18430029775987292 0.2765274577035292  0.
0.1554850985621873 0.2912203169410207  0.
0.24145244198537344 0.040726557982595495  0.
0.23224762790870793 0.08274283451239309  0.
0.21638682664990125 0.12741218808156043  0.
0.1939691354498249 0.17566234550239435  0.
0.16417572323372126 0.23050954508386629  0.
0.04482560736921982 0.20189906870161492  0.
0.03158290778193546 0.23205551694912618  0.
0.020665601253251824 0.25989581945838763  0.
0.012304002452271623 0.2837415631368126  0.
0.006382230434502656 0.3018545248738218  0.
0.002399019263149684 0.3128822629080091  0.
-0.00048546899491611637 0.3160859552115076  0.
-0.003252722949791935 0.31139548776421777  0.
0.0468095837571029 0.19775379679114938  0.
0.03151198690748989 0.22898228174375368  0.
0.01910830420100107 0.25836086602372693  0.
0.010099907288652428 0.28405696782242923  0.
0.00443522645755475 0.30403349199821456  0.
0.0013991011937059658 0.31657169310244276  0.
-0.00022769017049907003 0.32058937982828833  0.
-0.0018681412830408885 0.3160631084591555  0.
0.05315580853370195 0.20248752075529333  0.
0.036252410725701685 0.23379232493736637  0.
0.022476574306102386 0.26335060281353395  0.
0.012171741205844688 0.28942177985344764  0.
0.005599866166393485 0.30999330363969746  0.
0.0019694849744713904 0.3232224079871666  0.
-0.00011037613794200969 0.3281029393707477  0.
-0.0021835720941802746 0.3237026888286289  0.
0.06091732837115262 0.21316778261749064  0.
0.042579023213092135 0.24439806403228043  0.
0.027234091050051177 0.27367008949040117  0.
0.015598430731056493 0.2994440331268346  0.
0.00781628652905365 0.3199265964033732  0.
0.003103304952057797 0.33332268901670664  0.
3.767915572911839e-05 0.3389512324426214  0.
-0.0029418613310802054 0.33459062538909623  0.
0.06871811752176385 0.22846329227789056  0.
0.048731808294048676 0.259691787580554  0.
0.032134496124619945 0.28834686484721256  0.
0.019189417698671402 0.3133982180546235  0.
0.010131512546923956 0.3333607679741129  0.
0.00432440699779534 0.3465359420222225  0.
0.0002228431675757334 0.35111502322299565  0.
-0.003707747751403727 0.347122998676967  0.
0.0757061820210414 0.24792085962877597  0.
0.053844083873213135 0.2791845153893912  0.
0.03585308344120174 0.30701467944396216  0.
0.02176007628171711 0.3309208205195232  0.
0.011857202130383951 0.3497431466878209  0.
0.0051773819250775085 0.36175340139904066  0.
0.00034443709035973327 0.36595589291491215  0.
-0.00431409572938991 0.36234637260210495  0.
0.08111339583935132 0.27177796837879675  0.
0.057047661263978436 0.30285082814236836  0.
0.03780379928450929 0.3292875169002999  0.
0.023023774788252946 0.3513633154525605  0.
0.012652782494199422 0.36850356938603507  0.
0.005606420136075748 0.3796487020956669  0.
0.00041550408096844 0.383043113673052  0.
-0.004608199253731322 0.38019011070536496  0.
0.0836550312843956 0.30109167101141737  0.
0.05721844057608607 0.3310064372430486  0.
0.03717836839670186 0.35497304060507856  0.
0.02251738508291186 0.37428651954920256  0.
0.012337726293482133 0.38909152920421064  0.
0.005460798333190837 0.39865124862658524  0.
0.00041936978428320045 0.4019646631293811  0.
-0.004496418528414796 0.39930352780525363  0.
-0.0029521860655612278 0.4405854967557373  0.
-0.0018040034210690904 0.46077446545033457  0.
-0.0006882775789427148 0.48068855805542987  0.
0.0002572179161658738 0.4419889374458839  0.
0.00012762354215754845 0.4614817322316647  0.
3.999395792745641e-05 0.4808377928850411  0.
0.0035932563627415954 0.43931572787424733  0.
0.0021640172961290287 0.4598079610956496  0.
0.000822217751191029 0.4800812576307668  0.
0.008414467005145938 0.43355596153917286  0.
0.005285682643468939 0.4562463600779754  0.
0.0021951189528244975 0.4784930227144402  0.
0.015871268254428847 0.4250369817958504  0.
0.010345940802885163 0.4510221048340777  0.
0.00462988731808213 0.4761861268419945  0.
0.026994841912105775 0.4140019601136299  0.
0.018069936042891456 0.44436870802267875  0.
0.00852578813250814 0.4732803160029831  0.
0.04284148316307882 0.4004558653812334  0.
0.029078382396010558 0.4364839634713945  0.
0.01408221419103632 0.46993260699827694  0.
0.06471216171495708 0.3840987453637744  0.
0.04394096116978763 0.4275519802395368  0.
0.02148220327471214 0.46627613584693606  0.
0.04230092260360052 0.4583287537492532  0.
0.059290763883443585 0.45200754175303354  0.
0.08488700592945746 0.40839910008565133  0.
0.11271356093721366 0.3914024093502763  0.
0.1225054363763339 0.3516988277985616  0.
0.15209069323755087 0.3328154077155157  0.
0.2126823429938779 0.22139900128288834  0.
0.23612134221291045 0.1713267989205267  0.
0.2550558629834714 0.12487153916038819  0.
0.2692013678611608 0.0810302993605561  0.
0.2778990025952929 0.039690394716401026  0.
0.18796654810267618 0.23094287977444927  0.
0.21458349891708603 0.17690680711504092  0.
0.2355225091206776 0.12830586274501923  0.
0.25087815940553504 0.0833819988095554  0.
0.26019055577333416 0.0409437215830531  0.
0.22348578614186584 0.0392748991925672  0.
0.20639429425868452 0.036805220468661436  0.
0.19050446777780025 0.03389511255789988  0.
0.17565873239180282 0.030797954157604574  0.
0.16237378820531137 0.02798583459652528  0.
0.14973822218326818 0.02563936296581875  0.
0.13765839510103914 0.02447933731406126  0.
0.12305650198565746 0.025799053052392447  0.
0.21475101278572725 0.07964688296795455  0.
0.19704974991413476 0.07421217039402146  0.
0.18148537274551574 0.0681979572856153  0.
0.16685534667634058 0.061987875892113346  0.
0.15403018963538895 0.05646992378259218  0.
0.14145552450892057 0.051897644507937844  0.
0.12933637559729408 0.049667086288846495  0.
0.1159095154717055 0.05230626975506347  0.
0.19870330377809364 0.1218918724584658  0.
0.18187667605043037 0.11308944488723724  0.
0.16700408576160178 0.10377577708966014  0.
0.15299222869383067 0.0943535717484746  0.
0.1400060808915431 0.08591467721306813  0.
0.12793794413353438 0.07937493208963557  0.
0.11654473932855317 0.07627864595888334  0.
0.10490572661758613 0.08000485202726677  0.
0.17636774527390628 0.16611550228560676  0.
0.16089696571717746 0.15319549641029567  0.
0.14725744465571508 0.14009166983009524  0.
0.13433189884932695 0.12748985624425818  0.
0.12219331464306354 0.11660008298728851  0.
0.11084888555036988 0.10840119821736352  0.
0.10044375578598938 0.10461622756279026  0.
0.09107251229554478 0.10911647367640952  0.
0.14876759137847792 0.21379687957515217  0.
0.13600958673904825 0.19481101265545997  0.
0.12424734543635123 0.1770331957554924  0.
0.11293591064799528 0.16137253966161902  0.
0.10199711565079994 0.14838887481429805  0.
0.091650387658562 0.1389028960674098  0.
0.0824819248309978 0.13461474339336782  0.
0.07568324275956104 0.13945645396882966  0.
-0.09537500219249187 0.3174253903582701  0.
-0.01864373249471695 0.4021066422901739  0.
-0.032627448101775924 0.386434430857939  0.
-0.056108959974106705 0.35869844611475543  0.
-0.06987956115485809 0.3796835556637146  0.
-0.045196045457959126 0.4271993395302549  0.
-0.021497132100261874 0.4665877899170702  0.
-0.04961794661585277 0.19267615433677296  0.
-0.05028372475103286 0.1906388000612753  0.
-0.05470215061643554 0.19713174123123603  0.
-0.060945405589275206 0.20704022689255647  0.
-0.06795536689424261 0.2210302867791726  0.
-0.07517577646656458 0.2395120041986523  0.
-0.08225884334219011 0.26081872491704144  0.
-0.08934579971515343 0.28433493287458533  0.
-0.2255647661933596 0.04298587956074984  0.
-0.21429704416744116 0.08779189020808846  0.
-0.19607537310610415 0.13562097559131847  0.
-0.17051948496517702 0.1879374848824186  0.
-0.13773835796746778 0.2463977900564249  0.
-0.1836928060047684 0.28009807006344534  0.
-0.15640273782479683 0.2972104314750922  0.
-0.12783313944048685 0.30837475846206813  0.
-0.01378022742975343 0.4704871708435055  0.
-0.008015154816324378 0.47442918586823146  0.
-0.004193548882822547 0.4774493760968615  0.
-0.029091889306666327 0.4371360625710177  0.
-0.017101104795087353 0.44652717147798987  0.
-0.00943470010445061 0.4532285928305304  0.
-0.04404752236930557 0.39945555439935854  0.
-0.02555303849228929 0.41768694114787386  0.
-0.014548534481740776 0.42803689440561016  0.
-0.02090122540844979 0.3768231646297837  0.
-0.0212030756899996 0.35338729758822507  0.
-0.019853285634409284 0.3329377992825381  0.
-0.017447301259258974 0.31565678572523265  0.
-0.014636917357902086 0.30194236193613033  0.
-0.012059470942940874 0.29073793047870994  0.
-0.010751655406046305 0.2831222746529783  0.
-0.013470357112390084 0.2801541689308452  0.
-0.036129146949098245 0.3554534072920677  0.
-0.03596545414596276 0.3291853677642877  0.
-0.033538305500071156 0.3072176315785518  0.
-0.02986918856797634 0.28907256402151915  0.
-0.025816399390711037 0.27485216120790484  0.
-0.022212947219764897 0.2638147480359369  0.
-0.02015051123105807 0.25637723673446017  0.
-0.02254411901095802 0.2551667381460297  0.
-0.058422963986441936 0.3257688290576053  0.
-0.05645921374813349 0.2982259916675084  0.
-0.05213636214169632 0.27577880664963744  0.
-0.04686082299458741 0.25698921218731596  0.
-0.04138758606619758 0.24254339774880979  0.
-0.03656525015944665 0.23234077109309362  0.
-0.03336833886054583 0.22494834679895004  0.
-0.0347015852414727 0.2257639328976014  0.
-0.06640970848172703 0.15851811254032153  0.
-0.08362086945172624 0.12417682955507331  0.
-0.09959702418744427 0.09063791520744832  0.
-0.11288393727083192 0.05835913852060104  0.
-0.12093358770788008 0.028784655164531533  0.
-0.06977430309586709 0.1549868286388706  0.
-0.09014753132780405 0.1198194693187014  0.
-0.10919260614842498 0.08637018850176309  0.
-0.12455121251500594 0.055567424083847475  0.
-0.13421837591917063 0.027141362271852414  0.
-0.07572644447100936 0.1603508346960638  0.
-0.09786624333464576 0.1243257743278407  0.
-0.11867838714495228 0.089432872383979  0.
-0.13493773270065043 0.05753997313403314  0.
-0.14531662450252364 0.028042001406372367  0.
-0.08331961148660112 0.16992088256314983  0.
-0.10670561559057518 0.13302523178208994  0.
-0.12858289933044892 0.0960343366866945  0.
-0.14555701100494625 0.06188504332649484  0.
-0.15628573470863544 0.03013477191904852  0.
-0.09187220892116324 0.1824736213975895  0.
-0.1165443682164037 0.14358733518279168  0.
-0.13939986037167534 0.10412396515302862  0.
-0.15671806184833714 0.06730782074483412  0.
-0.16750195585414782 0.03283164933467689  0.
-0.10105664016167284 0.1988394667842975  0.
-0.12745325936152996 0.15541017133677482  0.
-0.15087123161319946 0.11285314120894215  0.
-0.16873570728679907 0.07311527835300122  0.
-0.17981196880469819 0.03571313591677942  0.
-0.11122291268943488 0.21487728843645848  0.
-0.13966255963833474 0.1673211058004186  0.
-0.164299245120968 0.12171477664459876  0.
-0.1825401035206667 0.07890799519379821  0.
-0.19397272919483677 0.0385596870742572  0.
-0.12299149587573237 0.2310892941475755  0.
-0.15371726044353984 0.1787815453208015  0.
-0.1794410737073031 0.12984430559216528  0.
-0.19788496662366264 0.08407552823443734  0.
-0.20910058825287137 0.04110919606870126  0.
-0.24290184031869394 0.04387016584687592  0.
-0.26068039446463215 0.04351989002324057  0.
-0.2781644140897954 0.041847649706427306  0.
-0.23253977506485476 0.08941938702107999  0.
-0.25087403103186673 0.08843693710426243  0.
-0.2688094366043698 0.08461750457392951  0.
-0.21492958026452427 0.13779317440360936  0.
-0.23447467423352336 0.13552782642473676  0.
-0.25408219411159727 0.12931431975030624  0.
-0.19100663497910167 0.18982268592680956  0.
-0.21289103989757244 0.18579812539957327  0.
-0.23474325080917163 0.17658177631183847  0.
-0.16172472018954556 0.24673753066235155  0.
-0.18670548470199164 0.23973310975864445  0.
-0.21129670404477213 0.22677256598888917  0.
-0.15153373871430692 0.3352332690210779  0.
-0.11230626086134145 0.3926187412923742  0.
-0.059063979337660895 0.45246512914632264  0.
-0.12325245746533087 0.35452428716136153  0.
-0.08507745633650272 0.409735828946122  0.
-0.04220504607432701 0.4588650654890043  0.
-0.09604506441805864 0.36739581525341064  0.
-0.06371536716187352 0.4188516125952109  0.
-0.030811052802363646 0.46301586343700535  0.
0.12255350344295088 -0.29939485449839986  0.
-0.003829951342810287 -0.42025155191819924  0.
0.000421576799889468 -0.42249584766792847  0.
0.004830502294956261 -0.4198026761815943  0.
0.010962096334119858 -0.41163592785756326  0.
0.020185016222060835 -0.39974917640354535  0.
0.03370496445329799 -0.3842235449844513  0.
0.05293064259942881 -0.3645256170758077  0.
0.08033514693842478 -0.3385124243567303  0.
0.09376162400804124 -0.3651626068648746  0.
0.06312605765352229 -0.4177626756515517  0.
0.030871929882781448 -0.4624547451478708  0.
0.05954724555939314 -0.17113144200512773  0.
0.06392694671159253 -0.16669287648308606  0.
0.07176025547906324 -0.17148523474399735  0.
0.0808659451205142 -0.18193110699908274  0.
0.09025804764029792 -0.19646723635127816  0.
0.09944408715411868 -0.21453661393334372  0.
0.10810202690063928 -0.23632094923611993  0.
0.1159685994024653 -0.26310029482785324  0.
0.2412984964042704 -0.040690008327754414  0.
0.23184679177303527 -0.08268002479317627  0.
0.21607131469189544 -0.127322310725597  0.
0.19365258423674853 -0.17557512251802831  0.
0.1639363611412207 -0.23045480068163843  0.
0.1847122285977498 -0.2757011736418847  0.
0.15560549546839444 -0.29086575860067415  0.
0.02148670389802001 -0.4663208043510632  0.
0.014046917866665433 -0.47002310614542797  0.
0.008476127378687174 -0.4734110462942262  0.
0.004587738498713001 -0.47637547490659554  0.
0.0021517046664313857 -0.47879429309071914  0.
0.000788022398460358 -0.48057944021633187  0.
3.608915956128045e-05 -0.48165773127934564  0.
-0.0006606896330365746 -0.48115114060736053  0.
0.044003188877806874 -0.42764000099230015  0.
0.029047145123388362 -0.4366680128604154  0.
0.017994494646991214 -0.44464137811895366  0.
0.010257051195682406 -0.45140754628392216  0.
0.005197652640386478 -0.45681655543649113  0.
0.0020939003555531153 -0.4607241075707135  0.
0.00012649976176259652 -0.4622110059838313  0.
-0.0017625267738073274 -0.46120492220207365  0.
0.06470585613244784 -0.38428121123979925  0.
0.042729688925750936 -0.40078428696485796  0.
0.026853466356941698 -0.4144526019518965  0.
0.0157469000907066 -0.42559692443027086  0.
0.008320845841119579 -0.43427468141808523  0.
0.003534467824502339 -0.4403511762610019  0.
0.000260669112580229 -0.44210997906252275  0.
-0.0029205897426346043 -0.44068737538618574  0.
-0.004345957500833667 -0.4003916543519892  0.
-0.004477159077705966 -0.3809109418202391  0.
-0.004210701456347088 -0.363227655190484  0.
-0.0036568326444126435 -0.3484551782816369  0.
-0.0029100749506612913 -0.33452462594569815  0.
-0.0021481663666330438 -0.32348035699607075  0.
-0.0018905999912058027 -0.3158015364314998  0.
-0.003356423113571184 -0.31125445955063064  0.
0.0005421597891249548 -0.4030996395881534  0.
0.0005623849839133342 -0.3841635586773367  0.
0.0004832056761527012 -0.36673880761555827  0.
0.00031782079895553147 -0.3521271640539935  0.
9.238961933093911e-05 -0.3385214686917589  0.
-0.00010826448807003044 -0.32767088943988326  0.
-0.00022390084221545403 -0.3203819389392431  0.
-0.00045691139931870934 -0.31596638200029215  0.
0.005623330288040199 -0.39949447671964183  0.
0.005802606181392924 -0.3800988657181307  0.
0.0053879526935457925 -0.3622729128741461  0.
0.004414601909521118 -0.3464962605628982  0.
0.0032080927220791964 -0.33341984693799864  0.
0.0019689285947148733 -0.323080497488515  0.
0.0013898683941754853 -0.3164663053594215  0.
0.002444107234839687 -0.31280180518208733  0.
0.012515222194741814 -0.3895861838347893  0.
0.012846941220890765 -0.36881138129671864  0.
0.012126412499433038 -0.3501087788023644  0.
0.010279000121563242 -0.3335868493904736  0.
0.007926764859661782 -0.32021029056579187  0.
0.005575414387731897 -0.310217547587435  0.
0.004374752337331735 -0.30424629497369243  0.
0.006378915580361463 -0.30191102364204153  0.
0.022667389086754874 -0.37495059089985455  0.
0.023161182709994625 -0.35204216538045674  0.
0.02194604932841696 -0.3316695404253263  0.
0.019402235455817048 -0.31421394126129076  0.
0.01573214617387462 -0.3001839703040394  0.
0.012032872171231947 -0.29015228096244433  0.
0.009914121849670181 -0.2847100147059096  0.
0.01219195669238139 -0.28407493065366163  0.
0.03736615285288172 -0.35584751854489105  0.
0.03789412603240129 -0.3303990177371904  0.
0.03605842514041376 -0.30825745883361305  0.
0.032121279185602515 -0.2896248717780769  0.
0.027134875369094705 -0.2749083270484812  0.
0.022047210373931602 -0.26458036612818914  0.
0.018725409876901404 -0.2594400186143206  0.
0.020447774128207568 -0.26053791738058457  0.
0.05741110588318288 -0.3320176916483247  0.
0.05713563270916687 -0.3041178631481352  0.
0.053750349834055945 -0.2805681024521943  0.
0.04842364101447077 -0.2611447377310905  0.
0.04205612814147539 -0.2458828961704764  0.
0.03567358053008884 -0.23522758799291446  0.
0.030979226189232222 -0.23020673892967308  0.
0.03134466631902125 -0.2328110488993219  0.
0.0834380442207594 -0.3018123595278387  0.
0.08073289880323722 -0.2727436967733676  0.
0.07518497806165028 -0.2490548560723532  0.
0.06808379058563382 -0.22968628983132058  0.
0.060243358216547076 -0.21439915167664642  0.
0.05252346511469594 -0.2036279889849745  0.
0.04634432980084731 -0.1986662537969787  0.
0.04466048124706258 -0.20243518525414284  0.
0.07554196197955217 -0.13960661751524875  0.
0.09118036795192141 -0.1089748474931629  0.
0.10519321067008956 -0.07968902860650927  0.
0.11626861459043562 -0.05198876678972169  0.
0.12329239440551865 -0.02566442212928882  0.
0.08254993961332098 -0.1349754087027398  0.
0.10077593485133003 -0.10457915836285796  0.
0.1170474007774676 -0.0759615539214372  0.
0.1298390787589719 -0.04927090226403511  0.
0.13788443761304267 -0.024154174339327615  0.
0.09177406423699216 -0.13944184833006767  0.
0.11121701564559221 -0.1084757679237475  0.
0.12852688552425764 -0.07914876340196651  0.
0.14199484794073794 -0.05147258609665628  0.
0.14998179654080915 -0.025237918626100597  0.
0.10203459733618796 -0.1490187509433432  0.
0.1225476948731351 -0.11698045806505845  0.
0.14052275508601111 -0.08570007250684589  0.
0.1539863393200316 -0.055892956255576935  0.
0.1623402513097242 -0.02742767879671776  0.
0.11283278261530104 -0.16196693392840691  0.
0.13445179048983968 -0.12756900940066404  0.
0.15331526594272318 -0.09394138851854704  0.
0.16772596754327718 -0.06151251509261459  0.
0.17619285438948495 -0.030218883825824182  0.
0.12401024161818615 -0.17748335438842866  0.
0.14716298792766264 -0.1399442433640275  0.
0.1670854512869482 -0.10315662594653287  0.
0.1816959357965514 -0.06755519223515384  0.
0.19049835823623545 -0.03323978109863026  0.
0.13567019908572223 -0.19505454031196207  0.
0.1608738197741513 -0.15318097995450927  0.
0.18169557846938392 -0.11244054242798575  0.
0.19684097609230009 -0.07353490208986983  0.
0.2062218100385669 -0.036197880981044386  0.
0.14838634619223037 -0.21378228343062577  0.
0.17606498747185256 -0.16585958230606446  0.
0.1979218855293767 -0.1209758723112312  0.
0.21377552581329212 -0.07888495180016193  0.
0.22315852928891125 -0.03881029617512546  0.
0.2599974249812433 -0.041370311546796865  0.
0.2776716435247908 -0.04054935051152902  0.
0.25055269982870026 -0.08395938683068147  0.
0.2688228411167814 -0.08164596652192378  0.
0.2351428567482512 -0.12867337130596646  0.
0.2548417170754155 -0.12473144692675371  0.
0.2143090584270378 -0.17703331090793156  0.
0.23592605233774971 -0.17155062786338376  0.
0.1878941676048855 -0.2306813804604873  0.
0.21283469238681366 -0.22092897069980139  0.
0.152532736211274 -0.3322159491381982  0.
0.1133348189564533 -0.3906804678690418  0.
0.05982017787842331 -0.4515239047398072  0.
0.12284982706490499 -0.35124029232356524  0.
0.08534729629805093 -0.40786177246860916  0.
0.042622071654233894 -0.4580074118981928  0.
-0.09528763953789784 -0.3178583527681357  0.
-0.018405298760101406 -0.4028300010854623  0.
-0.03258034473253466 -0.38602549460999336  0.
-0.055929274206669974 -0.3591624465835117  0.
-0.08951546490339249 -0.283818999579669  0.
-0.08252721324995876 -0.2586119302680027  0.
-0.07518035950580554 -0.2389459681226665  0.
-0.06795110676734784 -0.22195984411954492  0.
-0.06096140713512894 -0.20748251926034236  0.
-0.054878931320823235 -0.19714965520324743  0.
-0.050434831394005085 -0.19025327836816103  0.
-0.04948563889229102 -0.19311273058857287  0.
-0.02131297111726109 -0.46673446227912657  0.
-0.04490747672858628 -0.4274725433938439  0.
-0.06966442459403625 -0.37996068781103765  0.
-0.1834107318898765 -0.2806562373195796  0.
-0.1562073342548331 -0.29768440463010326  0.
-0.12770643523984718 -0.30879402094692193  0.
-0.22580262174180257 -0.04358991339007978  0.
-0.2149013194640765 -0.08849085403720963  0.
-0.19651293615684612 -0.13650527812128316  0.
-0.17067983120028377 -0.18845119802235777  0.
-0.13780590016362493 -0.24683153772444333  0.
-0.03439529417985763 -0.22598053124968046  0.
-0.022233772095650063 -0.25550736401049834  0.
-0.01331521447326677 -0.28035249787215377  0.
-0.033170293733959126 -0.22559736383345466  0.
-0.019873724937079302 -0.2572129949058039  0.
-0.0106499744254951 -0.2835042047058285  0.
-0.03640107010847293 -0.23240440298485848  0.
-0.02202914992951678 -0.2643346341983467  0.
-0.011948181721942648 -0.29101971110451486  0.
-0.041225249944745475 -0.24367279057590632  0.
-0.02568660145108112 -0.2760992636643386  0.
-0.014567337663892966 -0.3027672175894113  0.
-0.04669093542299158 -0.2582469642770546  0.
-0.02966735785579587 -0.29080290214581134  0.
-0.01731703165147752 -0.31722242122111804  0.
-0.05190591276141389 -0.2768249795259402  0.
-0.033285785562800214 -0.3084376290232055  0.
-0.019658443184496555 -0.33377093859331747  0.
-0.05630704437069817 -0.2980032835483972  0.
-0.035719098497932686 -0.32956455758805125  0.
-0.020996399299587364 -0.3536932019619156  0.
-0.05840780806152348 -0.32550733991876857  0.
-0.035969836505829134 -0.3552920764767686  0.
-0.02077349447260693 -0.3767399168846717  0.
-0.014524530009830176 -0.4277073321436481  0.
-0.009412665854171004 -0.45302851026085367  0.
-0.0040980718513214396 -0.47769365486497045  0.
-0.025811192732547075 -0.4165129751246323  0.
-0.017048894105531967 -0.44644972820071704  0.