<?xml version="1.0"?>
<VTKFile type="UnstructuredGrid" version="0.1" byte_order="LittleEndian" compressor="vtkZLibDataCompressor">
<UnstructuredGrid>
<Piece NumberOfPoints="240" NumberOfCells="209">
<PointData>
<DataArray type="Float64" Name="displacement" NumberOfComponents="3" format="ascii" >
0.0 0.0  0.
0.0 0.0  0.
0.0 0.0  0.
0.0 0.0  0.
0.0 0.0  0.
0.0 0.0  0.
0.0 0.0  0.
0.0 0.0  0.
0.0 0.0  0.
0.0 0.0  0.
0.0 0.0  0.
0.0 0.0  0.
-0.00016793770831032153 8.912998239743011e-05  0.
-6.793287987834449e-05 2.0573146293559706e-05  0.
-3.63699588256741e-05 9.472225261751823e-06  0.
-1.1899915716204425e-05 1.2115149452845038e-05  0.
6.206714202735745e-06 2.015548239981821e-05  0.
1.954445539175319e-05 3.089414148274665e-05  0.
2.8335938536609495e-05 4.225263442821105e-05  0.
3.274340407470694e-05 5.250725258459979e-05  0.
3.299663360711487e-05 5.997439026062527e-05  0.
2.9621431357273068e-05 6.303103801333529e-05  0.
2.3762257661262152e-05 6.0380685904822145e-05  0.
1.5732646952823972e-05 4.975588141249449e-05  0.
-0.00031759500285447875 0.00014933682005541308  0.
-0.00016644627901190857 8.543303719048406e-05  0.
-8.50077533164828e-05 5.23773431166085e-05  0.
-3.264071669358273e-05 4.834543864414158e-05  0.
6.768436287013989e-06 5.695511311334643e-05  0.
3.58246959590805e-05 7.172001034809662e-05  0.
5.567138351134644e-05 8.875496279644107e-05  0.
6.665490196203878e-05 0.00010494440718572244  0.
6.910981269972209e-05 0.00011747735534354781  0.
6.376132886311479e-05 0.00012374476924170935  0.
5.215909862133229e-05 0.0001215332859987724  0.
3.666875724659614e-05 0.00010974412074955621  0.
-0.00045504816089138295 0.00022109311880649741  0.
-0.00027456468631070145 0.00016158391386613647  0.
-0.0001511274927147759 0.00012282461396802993  0.
-6.526353190806183e-05 0.00010888558619235587  0.
-1.7599017155933532e-06 0.00011281747592700419  0.
4.5716771612481626e-05 0.00012641986554078863  0.
7.915955255857464e-05 0.00014437633472094854  0.
9.935878745181616e-05 0.00016257458963675695  0.
0.0001067389493320852 0.00017742316713535686  0.
0.0001020125666163701 0.00018565287545685324  0.
8.680064124063948e-05 0.00018449716010615115  0.
6.430654228919677e-05 0.0001724338715978491  0.
-0.0005877523163060639 0.00030573056041985087  0.
-0.00038641528711340296 0.0002506799289821695  0.
-0.0002300213547030706 0.00021115561064080345  0.
-0.00011183779412589716 0.00019128816985623857  0.
-2.1898815358477556e-05 0.00018867956011605475  0.
4.634061828250818e-05 0.0001977830367532896  0.
9.595046928773115e-05 0.00021308214434639602  0.
0.00012815966382762615 0.00022998446897688166  0.
0.00014354271815859837 0.0002444495260328855  0.
0.00014271616541730012 0.00025279178910939316  0.
0.00012704527896853968 0.00025175521449612376  0.
9.952230874157926e-05 0.0002389976037983887  0.
-0.0007192972719656223 0.0004050130571613337  0.
-0.0005008084415747867 0.00035375715905344864  0.
-0.00031831031468353117 0.0003153840584983099  0.
-0.00017142494083609086 0.0002923925856711885  0.
-5.5135371540432304e-05 0.0002841935079433993  0.
3.543812347614031e-05 0.00028749357907217876  0.
0.0001033897794527257 0.00029792333487322807  0.
0.00015026135360699278 0.0003110919302684985  0.
0.00017674632694286677 0.00032289010046543826  0.
0.00018334442663233991 0.0003294548009145785  0.
0.0001710017442932057 0.00032719146915183316  0.
0.00014193491549831306 0.00031300557967543194  0.
-0.0008517501483981573 0.000520309085560435  0.
-0.0006179706900836146 0.00047227007826255735  0.
-0.0004141626773728691 0.00043556961305966815  0.
-0.00024260131151598993 0.0004111345740856934  0.
-0.00010164607316179354 0.0003987289335914591  0.
1.1525389595921027e-05 0.00039643096931948603  0.
9.926406801158076e-05 0.0004011171611505472  0.
0.00016299697419060828 0.0004091223897869118  0.
0.00020341671717119569 0.00041664847856649035  0.
0.00022088134957005346 0.00041992103538473997  0.
0.0002158967920111772 0.00041523438518532423  0.
0.00018975098733166367 0.0003990309693213543  0.
-0.0009863542376030755 0.0006529956789132136  0.
-0.0007385024077409787 0.0006077576423023215  0.
-0.0005167808774863489 0.0005727527586664158  0.
-0.00032421289135025434 0.0005477479992363557  0.
-0.000161035015549915 0.0005323236582985696  0.
-2.610491028966568e-05 0.0005252235716747299  0.
8.192623025938365e-05 0.0005242787784707336  0.
0.00016403129310018077 0.0005266450733566583  0.
0.0002207059094638868 0.0005290825809347848  0.
0.000252119005130381 0.0005281448097794126  0.
0.0002583867982962108 0.0005202626436883524  0.
0.00023997239330247387 0.0005017640708369253  0.
-0.0011238582290116646 0.000804516810905646  0.
-0.0008629999248122896 0.0007618369734188824  0.
-0.0006259390410547466 0.0007284178802392875  0.
-0.0004155283046377251 0.0007032717628374393  0.
-0.00023279942871593174 0.0006856898103345761  0.
-7.768339867908574e-05 0.000674692761271554  0.
5.02749560029177e-05 0.0006687430459431254  0.
0.00015146350240414832 0.0006657071956547495  0.
0.00022602985565624585 0.0006629631372265289  0.
0.000273891944387925 0.0006575382871123151  0.
0.00029484326076736385 0.0006462004672118912  0.
0.00028873751723079027 0.0006254696106801858  0.
-0.0012646508010083204 0.0009764033662363129  0.
-0.0009919214141749341 0.0009361925587357029  0.
-0.0007416735005720781 0.0009042713120382606  0.
-0.0005161695572891708 0.0008792068899313523  0.
-0.0003165474237704465 0.0008600618701491522  0.
-0.0001432420121625093 0.0008459747387217192  0.
3.5937808592940394e-06 0.0008358200361058663  0.
0.00012381056255987005 0.0008280226022350303  0.
0.00021715143573099665 0.0008205300422352508  0.
0.00028323958114050515 0.0008108827173588745  0.
0.00032160066703339094 0.0007962958077152761  0.
0.0003317009607012805 0.0007736850160591727  0.
-0.0014088088127835858 0.0011702567024951271  0.
-0.0011255315900234983 0.0011325563820879484  0.
-0.0008640856945750455 0.0011021290585736796  0.
-0.0006259813502427559 0.001077309759159005  0.
-0.00041205615609771586 0.0010570273358993768  0.
-0.0002227967138202557 0.0010405033662392632  0.
-5.863611932030724e-05 0.001026917486043504  0.
7.989502289974618e-05 0.001015141243634097  0.
0.00019216190233571455 0.0010036155479012537  0.
0.0002774794151701188 0.000990364046236614  0.
0.0003351386908219278 0.0009730688430875615  0.
0.0003643854371941764 0.0009491239292131124  0.
-0.001556118221724119 0.0013877112301422631  0.
-0.0012638673657453209 0.0013526700264802987  0.
-0.0009932079203260472 0.0013238429668918322  0.
-0.0007448932089104956 0.0012994611438330041  0.
-0.0005192341747091102 0.001278389109408324  0.
-0.0003164336539046093 0.0012599426325213604  0.
-0.0001368886899021467 0.0012435772372470849  0.
1.86933189060459e-05 0.0012285638968836247  0.
0.00014938148750925174 0.0012137838290326804  0.
0.0002541872070641219 0.0011976922615225297  0.
0.0003321730416531944 0.0011783962483778664  0.
0.0003824495193309971 0.0011537473344735256  0.
-0.0017060911723881516 0.0016303875899803069  0.
-0.00140670992455033 0.0015982364221957333  0.
-0.0011288998578988653 0.0015712390785969138  0.
-0.0008727764185935609 0.0015475747437846523  0.
-0.000638023410387068 0.0015260619411338124  0.
-0.0004243053119552815 0.0015061151245731133  0.
-0.00023168470563552753 0.0014874717921500588  0.
-6.0806812377002244e-05 0.0014698124747330225  0.
8.721531011112388e-05 0.0014524559145500235  0.
0.0002110986238443477 0.0014342554396368442  0.
0.0003096456195673306 0.0014136769113069318  0.
0.0003818304106772865 0.001388944225750329  0.
-0.0018580229191652703 0.0018998587648801927  0.
-0.0015535663484132984 0.001870876741548858  0.
-0.0012707511319380608 0.001846064475616736  0.
-0.0010092935206452553 0.0018235219584451737  0.
-0.0007682435335149198 0.0018019840109490452  0.
-0.000546536047357184 0.0017809314361342833  0.
-0.0003435949595613738 0.0017603807642472189  0.
-0.000159708527580356 0.0017404657348151216  0.
3.996523906717228e-06 0.0017210022278492372  0.
0.0001459518247803672 0.0017012586981926389  0.
0.0002646171669215337 0.0016800113229382093  0.
0.0003587418792962494 0.0016557427479629758  0.
-0.00201112320250919 0.0021976807286173436  0.
-0.0017036800915038834 0.0021721538101969096  0.
-0.0014179959134855218 0.0021499807160097533  0.
-0.0011537392721357432 0.0021290847049934333  0.
-0.0009093881787205874 0.00210802740374971  0.
-0.0006830133382064653 0.0020862970229269624  0.
-0.0004731097300872951 0.002064140128382166  0.
-0.00027921323446607156 0.002042160670483082  0.
-0.00010214890111346425 0.0020207867574038537  0.
5.628565166869201e-05 0.001999814104699841  0.
0.0001940679274537422 0.0019783260896691288  0.
0.00030952828282892683 0.0019549771646180177  0.
-0.0021648161831146085 0.002525672499095329  0.
-0.001856103198223067 0.0025037908579175813  0.
-0.0015694665981355448 0.002484750454165399  0.
-0.0013049242038020155 0.0024660105585991294  0.
-0.0010604189186903894 0.0024459227580936904  0.
-0.0008330883985167878 0.002423941149717118  0.
-0.0006202936367961966 0.0024004763429944257  0.
-0.00042040579998848214 0.0023765142127763423  0.
-0.0002333463151122285 0.002353137687050702  0.
-6.0785207516774274e-05 0.0023309072010142145  0.
9.460085384368526e-05 0.0023093951064454875  0.
0.0002303630509665545 0.002287310598926359  0.
-0.0023192355101938466 0.002886621538856599  0.
-0.002009809404399668 0.00286858155777833  0.
-0.0017236598218292746 0.0028528792443102656  0.
-0.0014612101243245898 0.0028364453108102694  0.
-0.001219760127810738 0.0028173187323333837  0.
-0.000995377430127336 0.002795142237708382  0.
-0.000784295275428739 0.0027705236911520405  0.
-0.0005835592750349955 0.0027446681140920115  0.
-0.00039157885017266996 0.0027190987056790006  0.
-0.00020874486852509512 0.0026952244954498625  0.
-3.800353929643631e-05 0.002673481768791173  0.
0.0001167909905282971 0.002653059502932356  0.
-0.0024762028098531705 0.003287475264104957  0.
-0.002163944506050237 0.0032724466663004636  0.
-0.0018788134983392722 0.003259969033903312  0.
-0.0016211561351507343 0.003244265476875499  0.
-0.0013859764220210996 0.0032242839865648187  0.
-0.0011682023504878724 0.0032005228950404995  0.
-0.0009632734633885421 0.0031739989029332936  0.
-0.000767265864246841 0.003145991989444675  0.
-0.0005770831090270939 0.0031180764034934856  0.
-0.000390921614630143 0.003092133756450771  0.
-0.0002092018154051948 0.0030699747878825874  0.
-3.725836449284018e-05 0.003050899889159738  0.
-0.0026394950735455377 0.003743349123407809  0.
-0.0023155088536997346 0.003734734557867775  0.
-0.002035175472182357 0.00371961276472113  0.
-0.0017860548698369135 0.003697395965253099  0.
-0.001560122949371509 0.003670232400927074  0.
-0.0013515780896378293 0.00364009499049239  0.
-0.0011558305593379224 0.0036084551000813113  0.
-0.0009688623948078249 0.0035764549018112587  0.
-0.0007869410345411837 0.0035451933359731476  0.
-0.0006066006050679908 0.0035161326235900064  0.
-0.00042489826498800826 0.003491758705454293  0.
-0.00023955643806126622 0.0034772511011780995  0.
-0.0027906356310810985 0.00433143504471231  0.
-0.002473700779198745 0.0042992733786798906  0.
-0.0022047741694033274 0.004254614526596101  0.
-0.0019666979808659166 0.0042066606513188895  0.
-0.0017506741966103242 0.004158764053713686  0.
-0.0015513511027425912 0.0041124484690789114  0.
-0.0013648068697065623 0.0040685703318408244  0.
-0.001187729449118459 0.004027672964368594  0.
-0.0010169517972525946 0.003990084107888693  0.
-0.0008491216935141825 0.003955925193202925  0.
-0.0006804350080384417 0.0039250898640526095  0.
-0.0005065730210596653 0.0038969013608408003  0.
</DataArray>
<DataArray type="Float64" Name="Nodal_sigma_xx" NumberOfComponents="1" format="ascii" >
-54.740962447862984 
-40.17464141510105 
-18.63487180242023 
-6.254816208364203 
3.161093628111552 
9.969226764911499 
14.396607302119332 
16.540301185026006 
16.576208577784342 
14.881413302829806 
11.900759686775643 
10.135665078274187 
-51.25792768651782 
-39.73810005008286 
-20.50884242161656 
-7.256796113875791 
2.457344569433661 
9.566586678650438 
14.272267693444086 
16.685682590340853 
16.954028889277467 
15.390245965213488 
12.481962335728939 
10.760356305525118 
-45.811074084749556 
-38.422515654739136 
-23.184799632924587 
-9.454030466775167 
0.8848432357975853 
8.565530546565453 
13.847903393918905 
16.83957114124432 
17.642033677660223 
16.459834272995135 
13.746276735031417 
12.084661055636325 
-42.5701747042466 
-36.76540026994643 
-24.213672637116566 
-11.521000016922182 
-0.9068295678357219 
7.252196579104433 
13.103878845697878 
16.722459847457785 
18.166590675978313 
17.554449520061087 
15.176509173547347 
13.597366956786527 
-40.47343620571671 
-35.37092541016475 
-24.398733397403078 
-12.937288447683994 
-2.6201113365733986 
5.7948155352154105 
12.12520531124132 
16.355526076246115 
18.487504947909926 
18.557501600935097 
16.69812013476673 
15.311276405070533 
-39.12431491912156 
-34.29855539170492 
-24.21391204627232 
-13.787452748892717 
-4.015832634198363 
4.375143385991906 
11.027239789717461 
15.792103944929536 
18.599675886165357 
19.412046380242245 
18.236603703018204 
17.156663336607032 
-38.2461142188652 
-33.51331212636482 
-23.909506005741683 
-14.249802663364308 
-5.0571155877022305 
3.129683509865517 
9.92866647330036 
15.109482099539857 
18.531443409319206 
20.094600496749436 
19.719349292268003 
19.038258311170754 
-37.64878435924736 
-32.9384365990328 
-23.59961704895092 
-14.481130297541288 
-5.800480544946804 
2.1057867617353496 
8.918187472871457 
14.387762707406997 
18.331743708041166 
20.607242305897568 
21.08384545988802 
20.856123977626833 
-37.18586306546324 
-32.48492431711362 
-23.317272901738665 
-14.588357466873338 
-6.3298760282598865 
1.2871427810915959 
8.03426068848163 
13.686894639283686 
18.052110480573866 
20.967779641895305 
22.283562537075845 
22.522635930235076 
-36.73214925797056 
-32.05911190105628 
-23.047844626589356 
-14.629573870596886 
-6.722836962233486 
0.6237427321474761 
7.269595391748489 
13.032271793311692 
17.729250562309097 
21.19762978486312 
23.28930338269 
23.97286916054069 
-36.17157388843512 
-31.56344286538893 
-22.74583261966507 
-14.621664558037137 
-7.035979722368291 
0.054147480119004165 
6.583354691962099 
12.411825727927297 
17.37285822886926 
21.30946951351357 
24.085403089839858 
25.167362852572964 
-35.39234252849112 
-30.895322952359734 
-22.340805658797173 
-14.54493403791143 
-7.2984688620056 
-0.4801441571841165 
5.9128876555259104 
11.778400604308874 
16.9589614379192 
21.296408837355948 
24.661585347187916 
26.087160722750305 
-34.28847457476672 
-29.946837655568952 
-21.736161575955897 
-14.340954572023577 
-7.504772289156472 
-1.023408271801186 
5.182963639046207 
11.052033367408495 
16.424736736118938 
21.121753233467636 
25.0010747773778 
26.722035797129607 
-32.768705466421956 
-28.607122676632862 
-20.803222200325372 
-13.902872348142614 
-7.600402747277254 
-1.5895588346332965 
4.316202268463549 
10.11970358810175 
15.659093048470137 
20.70470278049374 
25.063713439136784 
27.052357132140287 
-30.771831682213076 
-26.76773329463611 
-19.373149868964717 
-13.061495828394154 
-7.460121161981033 
-2.13184619912656 
3.257989312079462 
8.837601048183505 
14.483622925601134 
19.892717231387113 
24.757744878978045 
27.021854574385113 
-28.282273580019385 
-24.321725471158246 
-17.22618467016711 
-11.580600617005864 
-6.874237930645406 
-2.5039545948925683 
2.038963828688432 
7.0703875455032605 
12.628918156733365 
18.403506088741672 
23.88424341241432 
26.485906111651307 
-25.27134148191749 
-21.11944456745967 
-14.079243759952906 
-9.190907774619637 
-5.600614013991022 
-2.4661794071329624 
0.853937651927554 
4.8431897786117215 
9.805961038336426 
15.726238529974571 
21.99853515692086 
25.100017545816286 
-21.387215977764825 
-16.67559760903587 
-9.569305733408312 
-5.840429823263038 
-3.5969616946445204 
-1.8464603385209366 
0.027362599222448075 
2.5237497753689073 
6.1202469524317715 
11.253650472273886 
18.09595948941773 
21.93756229462751 
-13.081497751371389 
-9.406627024569625 
-4.368718164009343 
-2.4109597902941537 
-1.4914003921360055 
-0.895666705787096 
-0.2591017898318344 
0.732216360679524 
2.470830068202832 
5.5108008778416835 
10.691621367619131 
13.94543699257751 
-7.015599395257645 
-4.767421405092234 
-1.814893568644743 
-0.876159596191525 
-0.551788215922966 
-0.4090111218675242 
-0.2662050443886731 
0.05193686981572909 
0.8213929683161935 
2.5230398300633943 
5.916684140472504 
8.150012010951304 
</DataArray>
<DataArray type="Float64" Name="Nodal_sigma_yy" NumberOfComponents="1" format="ascii" >
-14.968761379176197 
-12.284364746478753 
-7.4624904425983445 
-3.3421378293286006 
0.19192528196210323 
2.904229806647737 
4.831635594674461 
5.991278433186046 
6.452319546638809 
6.352423361859339 
5.922168372380489 
5.659497275167304 
-9.261897288274245 
-8.919140071898397 
-7.067008328678532 
-3.9269617558194643 
-0.8754987561570313 
1.6924953074424423 
3.6937717151637783 
5.116727403530005 
6.001858332692797 
6.4398268797924025 
6.631506358334693 
6.701465828343192 
-2.981344208060867 
-4.340730554034218 
-5.491798653548354 
-4.354416839820862 
-2.3246543978325747 
-0.15544931607824924 
1.8774695359291276 
3.680076161464008 
5.231514659807655 
6.540697825721617 
7.665660347267888 
8.194684220682028 
-2.1368886011908765 
-2.6122807947853692 
-3.5183544664481943 
-3.628633911026374 
-2.57289235778117 
-0.9268881416199608 
0.9514035990979046 
2.890160337463391 
4.809145555294137 
6.6561407113324 
8.340795782575224 
9.126311221556751 
-1.7713806193802255 
-1.8599880688833932 
-2.230128967262293 
-2.483117607890551 
-2.004957648283641 
-0.8194219015431645 
0.8274856577571792 
2.75627858983436 
4.855596537564946 
7.038678797683083 
9.179747314579906 
10.219245550931296 
-1.6356773214988438 
-1.501763310462514 
-1.4151615583843649 
-1.410704369190564 
-1.0348228150933914 
-0.09923320419118292 
1.3552596973090523 
3.2186449994331 
5.393697921568723 
7.794685169146801 
10.311910817190288 
11.582832234210493 
-1.5703196911221702 
-1.3027681221453462 
-0.8638627820240048 
-0.49951353398776527 
0.042514932459005506 
0.9642267671497082 
2.3401692826306366 
4.156311576120902 
6.364927278530768 
8.9098772772954 
11.720585898024419 
13.182081599253682 
-1.5223286796324424 
-1.158411845586026 
-0.4419324565271435 
0.2765163074128251 
1.0972795452527464 
2.1646151806017677 
3.5859064724919953 
5.4123589147521844 
7.6534205722198605 
10.296184858321809 
13.31560031360651 
14.915693383450376 
-1.4695947511371814 
-1.0224572807882024 
-0.0725353343621748 
0.9637493892847824 
2.0890223491095847 
3.3801348251371275 
4.93330658045146 
6.828643875786932 
9.117960887797395 
11.829020329237094 
14.976976737349833 
16.66168541223955 
-1.4030958821450543 
-0.8751937349423572 
0.2844314906987006 
1.6009031681491597 
3.01686221303211 
4.552359688293495 
6.27668936403714 
8.27517188223092 
10.623783385765954 
13.379361868120238 
16.58508729073177 
18.30540586268338 
-1.319300167496278 
-0.7098374789597645 
0.6465695467083024 
2.2130886119940603 
3.89369447496511 
5.6628043030493425 
7.559943187058114 
9.664897773088006 
12.06608114366178 
14.838747469009869 
18.04164326580144 
19.757161712530188 
-1.2179761754440217 
-0.52731850586959 
1.0164497444634957 
2.8118810613115164 
4.733835176695569 
6.715612545713091 
8.76586946025709 
10.955229666300141 
13.38116261632139 
16.133737467617365 
19.28066464142274 
20.959702632731492 
-1.1019417768060915 
-0.3347452008373004 
1.3851872228945243 
3.3966959829704297 
5.547221607309007 
7.725939115597162 
9.90500498642145 
12.1423811832857 
14.5468919682574 
17.22892984212755 
20.268504247828545 
21.885276442328674 
-0.9779517311600379 
-0.144069261749525 
1.7375309132839252 
3.960470363323438 
6.340129275961858 
8.713354613882418 
11.005791565094684 
13.253222212731243 
15.576701658407044 
18.121091326563818 
20.994219544667914 
22.52265567416803 
-0.8517551514611053 
0.035027814080531045 
2.068974029194191 
4.514654154032448 
7.135318901693279 
9.70892853285373 
12.108379337825012 
14.335375393329288 
16.512067303200183 
18.827665716747028 
21.45210773915587 
22.858636248589917 
-0.7404200798225613 
0.21587664338981816 
2.446710559967396 
5.167834949975284 
8.053882636439482 
10.81302981495877 
13.28640084060961 
15.447208434272525 
17.403598280921052 
19.377755128643077 
21.616505823401283 
22.830366260376138 
-0.5237040041259813 
0.5420800374623405 
3.169780779822564 
6.380014525967301 
9.551040923744932 
12.387132125329927 
14.780797190333487 
16.72271816429314 
18.29777206084635 
19.73633858712493 
21.410499375537125 
22.35950977608765 
-0.4603567418653392 
1.5278190620372274 
5.676054799963341 
9.670696194638747 
12.944786463432422 
15.472535053667457 
17.351753182190592 
18.674151632791588 
19.51015355386613 
19.97531165979299 
20.397994742622807 
20.660101536429217 
5.600495670590982 
9.21514479490033 
15.176442308494282 
18.953901928604246 
21.186042913086663 
22.356543165097307 
22.789885154872877 
22.687642578505177 
22.154075890205856 
21.21123110628329 
19.86457108156746 
19.093603220264555 
11.76673422489281 
16.14805077484467 
22.67732446055848 
25.783971375430447 
27.01529063089965 
27.130143322336927 
26.530825628729445 
25.454178057590873 
24.039051252269303 
22.326607125657247 
20.134189757499005 
18.87419637308424 
</DataArray>
<DataArray type="Float64" Name="Nodal_sigma_xy" NumberOfComponents="1" format="ascii" >
3.302182233964294 
2.037281584354329 
0.6986658972653348 
1.2238858963772754 
2.6812344307699396 
4.501701113304562 
6.382176213311499 
8.037644714765507 
9.192053857440953 
9.581577290829015 
8.93900964726619 
8.32428112681075 
0.07712186449817438 
0.8649088861799611 
1.6218218241669737 
2.0772886843773755 
3.3111004783739095 
4.914923181116787 
6.6066368633601815 
8.131153351248742 
9.2387097138846 
9.687117129863157 
9.286684096891774 
8.85624535228101 
-4.344041206820463 
-1.3867772752039844 
2.2314188702229547 
3.353083107898254 
4.428880757869559 
5.749650858874109 
7.1662431657133085 
8.497859218765598 
9.54870437973116 
10.115579025310367 
10.061085870357962 
9.869835009680735 
-6.062061588045566 
-3.1778921070123607 
1.2878644083692885 
3.6763111816758034 
5.15642774769408 
6.50873024210754 
7.858116671660216 
9.134406054986405 
10.204767769240298 
10.899916361851819 
11.03951219119388 
10.94837252105155 
-6.824946442276451 
-4.3410939810828415 
0.0622391613942157 
3.231344466537406 
5.3757486345018926 
7.041145652602119 
8.524399795973764 
9.881866453186854 
11.054753988882691 
11.913773053613138 
12.265628456384032 
12.286522342283392 
-7.179678679605006 
-5.0686634845176926 
-0.996287989369046 
2.49310554833582 
5.181876620394241 
7.287267662532127 
9.058309928450475 
10.621094027112083 
11.984146097119964 
13.067648667495622 
13.704341363518232 
13.884188518706804 
-7.340335083108018 
-5.499611958621445 
-1.7732169068657562 
1.767698647501374 
4.7907019589128135 
7.297618375178265 
9.420743164240504 
11.27545078189372 
12.906166336764251 
14.279027058808033 
15.274800221638802 
15.657688656753312 
-7.388774454869231 
-5.717735784269429 
-2.2616162074375485 
1.2093114583882145 
4.389458591918441 
7.186627604287406 
9.6380453253175 
11.814277251354692 
13.760452899575094 
15.471485202942588 
16.87739356767586 
17.490762433822525 
-7.351719381020003 
-5.767954893475994 
-2.4841341367587693 
0.8835436232170757 
4.103425711893854 
7.070627292076204 
9.774927495774167 
12.246677929298244 
14.514314642119302 
16.58160705990843 
18.414239555325274 
19.26482513363974 
-7.232792167832296 
-5.671631954706079 
-2.4653201736738306 
0.8117325079983377 
4.005432659625608 
7.040681881248432 
9.90312222138127 
12.605225809272016 
15.159197278648792 
17.564597632503656 
19.803934806531892 
20.87872966456244 
-7.026593138378262 
-5.437331293767662 
-2.2239245005371826 
0.9972098132577978 
4.134867842128763 
7.159756345335493 
10.084069619344803 
12.92887426254318 
15.701945894696184 
18.394559185534213 
20.98933380036106 
22.259855547802953 
-6.726113756980558 
-5.068496907421453 
-1.7727883528861315 
1.4394635940392533 
4.5158192640302754 
7.472109703213274 
10.366079063821541 
13.253101311496241 
16.155230675827816 
19.059494171375185 
21.937323558980815 
23.365870917163072 
-6.328620392464169 
-4.569998522218784 
-1.1217981381113993 
2.1408824016221955 
5.171501437074138 
8.017920252526823 
10.7924493224539 
13.609542878091567 
16.531289784314396 
19.55329715512648 
22.631037939133634 
24.177051966968612 
-5.842128216877111 
-3.9542966202775616 
-0.28159043316324917 
3.108678164754132 
6.133232419396287 
8.848152987376139 
11.41736142554438 
14.035708346042117 
16.84171796369143 
19.86708176616711 
23.05580637611014 
24.68027799815698 
-5.291671324869395 
-3.244389951316958 
0.7376697893373392 
4.355666076450788 
7.440581727901025 
10.030021343124456 
12.322219747564432 
14.596035250181513 
17.107455417773718 
19.98234258822039 
23.179796415458693 
24.84442425788064 
-4.718306870193365 
-2.459277403944395 
1.951514557676877 
5.9128782920716425 
9.132140774301568 
11.623120087771289 
13.601886086527346 
15.39954663199936 
17.390951426292737 
19.87495201714221 
22.92660249207203 
24.585444553467532 
-4.136854436049179 
-1.5390911853862863 
3.5122765562454075 
7.898046524767849 
11.231365844030504 
13.604670134019024 
15.26189418031216 
16.525850864861297 
17.804993811039786 
19.5686770846082 
22.16176552887593 
23.69143055921823 
-3.3501335208322574 
0.06202884520565388 
6.119244367525951 
10.604731241587789 
13.682874231765766 
15.718948644295857 
16.997536523166445 
17.759584489461446 
18.2942134932753 
19.046636987914912 
20.709064699523132 
21.87187269274962 
1.6663170995237242 
5.270481220101514 
10.856622785486946 
14.013736470980426 
15.927581295270688 
17.131102217709792 
17.854900206227057 
18.196298569494044 
18.214442022943494 
18.018049640233468 
17.911572307406114 
17.937218097153835 
6.190988404514293 
9.387858963936157 
13.887288855674278 
15.83930681438687 
16.873819274936057 
17.50560206829944 
17.891681390060974 
18.046362585451334 
17.901411778858858 
17.317541119041913 
16.036203532153696 
15.178454965650596 
</DataArray>
</PointData>
<CellData>
</CellData>
<Points>
<DataArray type="Float64" Name="Points" NumberOfComponents="3" format="ascii">
0.0 50.0 0.0
0.0 45.4545441 0.0
0.0 40.9090919 0.0
0.0 36.363636 0.0
0.0 31.818182 0.0
0.0 27.272728 0.0
0.0 22.727272 0.0
0.0 18.181818 0.0
0.0 13.636364 0.0
0.0 9.090909 0.0
0.0 4.5454545 0.0
0.0 0.0 0.0
2.52631569 50.5263176 0.0
2.52631569 46.1435394 0.0
2.52631569 41.7607651 0.0
2.52631569 37.3779907 0.0
2.52631569 32.9952164 0.0
2.52631569 28.6124401 0.0
2.52631569 24.2296658 0.0
2.52631569 19.8468895 0.0
2.52631569 15.4641151 0.0
2.52631569 11.0813398 0.0
2.52631569 6.69856453 0.0
2.52631569 2.31578946 0.0
5.05263138 51.0526314 0.0
5.05263138 46.8325348 0.0
5.05263138 42.612442 0.0
5.05263138 38.3923454 0.0
5.05263138 34.1722488 0.0
5.05263138 29.9521523 0.0
5.05263138 25.7320576 0.0
5.05263138 21.511961 0.0
5.05263138 17.2918663 0.0
5.05263138 13.0717707 0.0
5.05263138 8.85167503 0.0
5.05263138 4.63157892 0.0
7.57894754 51.578949 0.0
7.57894754 47.5215302 0.0
7.57894754 43.4641151 0.0
7.57894754 39.4067001 0.0
7.57894754 35.3492813 0.0
7.57894754 31.2918663 0.0
7.57894754 27.2344494 0.0
7.57894754 23.1770344 0.0
7.57894754 19.1196175 0.0
7.57894754 15.0622005 0.0
7.57894754 11.0047846 0.0
7.57894754 6.94736862 0.0
10.1052628 52.1052628 0.0
10.1052628 48.2105255 0.0
10.1052628 44.3157883 0.0
10.1052628 40.421051 0.0
10.1052628 36.5263176 0.0
10.1052628 32.6315804 0.0
10.1052628 28.7368412 0.0
10.1052628 24.8421059 0.0
10.1052628 20.9473686 0.0
10.1052628 17.0526314 0.0
10.1052628 13.1578951 0.0
10.1052628 9.26315784 0.0
12.6315794 52.6315804 0.0
12.6315794 48.8995209 0.0
12.6315794 45.1674652 0.0
12.6315794 41.4354057 0.0
12.6315794 37.7033501 0.0
12.6315794 33.9712906 0.0
12.6315794 30.2392349 0.0
12.6315794 26.5071774 0.0
12.6315794 22.7751198 0.0
12.6315794 19.0430622 0.0
12.6315794 15.3110046 0.0
12.6315794 11.5789471 0.0
15.1578951 53.1578941 0.0
15.1578951 49.5885162 0.0
15.1578951 46.0191383 0.0
15.1578951 42.4497604 0.0
15.1578951 38.8803825 0.0
15.1578951 35.3110046 0.0
15.1578951 31.7416267 0.0
15.1578951 28.1722488 0.0
15.1578951 24.6028709 0.0
15.1578951 21.033493 0.0
15.1578951 17.4641151 0.0
15.1578951 13.8947372 0.0
17.6842098 53.6842117 0.0
17.6842098 50.2775116 0.0
17.6842098 46.8708153 0.0
17.6842098 43.4641151 0.0
17.6842098 40.057415 0.0
17.6842098 36.6507187 0.0
17.6842098 33.2440186 0.0
17.6842098 29.8373203 0.0
17.6842098 26.4306221 0.0
17.6842098 23.0239239 0.0
17.6842098 19.6172256 0.0
17.6842098 16.2105255 0.0
20.2105255 54.2105255 0.0
20.2105255 50.966507 0.0
20.2105255 47.7224884 0.0
20.2105255 44.4784698 0.0
20.2105255 41.2344513 0.0
20.2105255 37.9904289 0.0
20.2105255 34.7464104 0.0
20.2105255 31.5023918 0.0
20.2105255 28.2583733 0.0
20.2105255 25.0143547 0.0
20.2105255 21.7703342 0.0
20.2105255 18.5263157 0.0
22.7368412 54.7368431 0.0
22.7368412 51.6555023 0.0
22.7368412 48.5741615 0.0
22.7368412 45.4928246 0.0
22.7368412 42.4114838 0.0
22.7368412 39.330143 0.0
22.7368412 36.2488022 0.0
22.7368412 33.1674652 0.0
22.7368412 30.0861244 0.0
22.7368412 27.0047855 0.0
22.7368412 23.9234447 0.0
22.7368412 20.8421059 0.0
25.2631588 55.2631569 0.0
25.2631588 52.3444977 0.0
25.2631588 49.4258385 0.0
25.2631588 46.5071754 0.0
25.2631588 43.5885162 0.0
25.2631588 40.669857 0.0
25.2631588 37.7511978 0.0
25.2631588 34.8325348 0.0
25.2631588 31.9138756 0.0
25.2631588 28.9952145 0.0
25.2631588 26.0765553 0.0
25.2631588 23.1578941 0.0
27.7894745 55.7894745 0.0
27.7894745 53.033493 0.0
27.7894745 50.2775116 0.0
27.7894745 47.5215302 0.0
27.7894745 44.7655487 0.0
27.7894745 42.0095711 0.0
27.7894745 39.2535896 0.0
27.7894745 36.4976082 0.0
27.7894745 33.7416267 0.0
27.7894745 30.9856453 0.0
27.7894745 28.2296658 0.0
27.7894745 25.4736843 0.0
30.3157902 56.3157883 0.0
30.3157902 53.7224884 0.0
30.3157902 51.1291847 0.0
30.3157902 48.5358849 0.0
30.3157902 45.942585 0.0