<?xml version="1.0"?>
<VTKFile type="UnstructuredGrid" version="0.1" byte_order="LittleEndian" compressor="vtkZLibDataCompressor">
<UnstructuredGrid>
<Piece NumberOfPoints="240" NumberOfCells="209">
<PointData>
<DataArray type="Float64" Name="displacement" NumberOfComponents="3" format="ascii" >
0.0 0.0  0.
0.0 0.0  0.
0.0 0.0  0.
0.0 0.0  0.
0.0 0.0  0.
0.0 0.0  0.
0.0 0.0  0.
0.0 0.0  0.
0.0 0.0  0.
0.0 0.0  0.
0.0 0.0  0.
0.0 0.0  0.
-0.26123796715316855 0.04155901582192038  0.
-0.12078682998246718 0.01862225889095606  0.
-0.06642284108735436 0.02725531990434191  0.
-0.0234041300008127 0.03946217376687434  0.
0.009539041741008315 0.051712147817269925  0.
0.0343844250365453 0.06286310155290402  0.
0.051483749636893276 0.07181651293424186  0.
0.06095584873613642 0.07759021474714506  0.
0.06290611922126804 0.07911721825055686  0.
0.05764533324362399 0.07516354118742419  0.
0.0458398342913395 0.06418657272839068  0.
0.02613084381202609 0.04161428546408373  0.
-0.49269671732156956 0.11194765990203384  0.
-0.2729293931718926 0.09126173783098886  0.
-0.14839412006879196 0.08990808078841045  0.
-0.06141812175863046 0.10433453686613688  0.
0.006532763292022411 0.12181022604395848  0.
0.058438094861315515 0.13847184695577142  0.
0.09558251864925042 0.15199389741270278  0.
0.11823783097694951 0.16046614812942936  0.
0.12649811334261873 0.1620801224823373  0.
0.12066133238585226 0.1549372770834146  0.
0.1014829756593461 0.13687311989737735  0.
0.06951101112799808 0.1051698028057305  0.
-0.7078497933786647 0.2106282024682566  0.
-0.4383878888173722 0.1938100508314311  0.
-0.25195891734302495 0.1884450073383472  0.
-0.1165692531164267 0.19795079918077918  0.
-0.011817778332922883 0.21472763427594027  0.
0.06953247958865233 0.2320717836243465  0.
0.12962872076423515 0.24627814168254356  0.
0.169152988533974 0.2546040287825715  0.
0.18820867448357975 0.2546604084466479  0.
0.18694341615555368 0.2441508265557474  0.
0.1660078253936763 0.22078508660951487  0.
0.12682270438883947 0.18247074039412342  0.
-0.9153858318593023 0.3338294334513788  0.
-0.610520019836982 0.3215463647394171  0.
-0.3738854861856185 0.3159517767811593  0.
-0.19137369333281098 0.32104378283761165  0.
-0.04792287687179195 0.33357486478542214  0.
0.06497077679359997 0.34799797995335086  0.
0.15079606673991783 0.35976064706839317  0.
0.21071395927520817 0.3654864674345144  0.
0.24495293897700302 0.36235069911958434  0.
0.25350839335606634 0.34778219630554363  0.
0.23673251838404297 0.3193704727639458  0.
0.19594322988080148 0.27503970615571954  0.
-1.1206687790363525 0.480815543685428  0.
-0.7875889755266896 0.473136931900497  0.
-0.5106223160748793 0.46937681802907905  0.
-0.28557350140690196 0.47200809981161873  0.
-0.10363275129203527 0.47992205926122494  0.
0.04231687055320534 0.48951664165573233  0.
0.15622224587654165 0.49674155374459245  0.
0.2397275125092606 0.4980374863955254  0.
0.293238473068218 0.49035287271974765  0.
0.31665809259146815 0.4709427961722465  0.
0.3099731149029771 0.437267635807325  0.
0.27390634903490685 0.3870598290395236  0.
-1.3271756993043695 0.6520769774245687  0.
-0.969863068630417 0.6489534898645467  0.
-0.6599362029201236 0.6479899132323975  0.
-0.397884170086651 0.6499225178342781  0.
-0.17961344612005728 0.6542513188502603  0.
-0.00037557658153860647 0.658836175399521  0.
0.14322503039595802 0.660645915675118  0.
0.2529401441226013 0.6565098840143038  0.
0.32931044525439385 0.6434434625436815  0.
0.3721941285515644 0.6186764990571422  0.
0.38125802531109915 0.5796017223788524  0.
0.3565243665447389 0.5237724155572916  0.
-1.5372777337940613 0.8487749873762614  0.
-1.158323394042071 0.8501938340120767  0.
-0.820857403224037 0.8524455004464463  0.
-0.5270999414946249 0.8549178997088753  0.
-0.2757992865028101 0.857027355604768  0.
-0.06438175977980971 0.857441405226384  0.
0.10948179105200995 0.8540724892481241  0.
0.24721632545020777 0.8444074443234286  0.
0.34932010771342265 0.82580865832569  0.
0.41560462578257473 0.7956645103902628  0.
0.44550764641783935 0.75142203677164  0.
0.4384693339506229 0.690574393905282  0.
-1.752636883564244 1.0724883642539254  0.
-1.3541188369930213 1.0785134799987346  0.
-0.993274979220803 1.0841730174466122  0.
-0.6725130689581661 1.087989720327774  0.
-0.39193779203484935 1.0891183677948773  0.
-0.1504800283568017 1.0865958544968561  0.
0.053109469217296514 1.079011213897041  0.
0.21968021415266303 1.0645062814171207  0.
0.34949037755862916 1.04092630220157  0.
0.4422457352027734 1.0059714543577474  0.
0.49723416184510616 0.9572798600130927  0.
0.513518066069435 0.8924376756526285  0.
-1.9744037855107213 1.3250800361351849  0.
-1.5583387363675227 1.3358429996055559  0.
-1.177575571694683 1.3450314731657302  0.
-0.8339526703725398 1.3507169717129193  0.
-0.5279357607472955 1.3518508896949828  0.
-0.25924433686463855 1.3476419077140656  0.
-0.027427336459188403 1.3371273312284435  0.
0.1677666534505547 1.3189859716207395  0.
0.3262373765528805 1.2915470890233358  0.
0.44750952515930825 1.252891820930863  0.
0.5307612592754715 1.2009486665521685  0.
0.5748721693280748 1.133529506349671  0.
-2.203306474462412 1.6086049714309336  0.
-1.7719081013485103 1.624277456278487  0.
-1.3743771493493881 1.6371113459114846  0.
-1.0116660086932212 1.6450319512581661  0.
-0.6839988010254024 1.6469165568044903  0.
-0.3912874252885334 1.642107779328672  0.
-0.13349872767381168 1.6299716413217573  0.
0.08915976740998752 1.6096110862513449  0.
0.2762114060804515 1.5797769582644976  0.
0.4269460922067091 1.5389214995619196  0.
0.5404341849081519 1.4852958219411412  0.
0.6155047374096773 1.4170112498152474  0.
-2.4397009850365206 1.925229724278204  0.
-1.9955231545590433 1.9459907938754295  0.
-1.5843312625935495 1.962609120088612  0.
-1.2061479855739854 1.9730542519304395  0.
-0.8606171733052407 1.976245546913922  0.
-0.5473969482013955 1.971698060425781  0.
-0.2664895624153926 1.9590865871645773  0.
-0.01834502859053734 1.9378871571336105  0.
0.19624440683295302 1.907212866512394  0.
0.3763051023410679 1.865835849068241  0.
0.5207721350699379 1.8122989064442128  0.
0.6284738646566081 1.7450122106401518  0.
-2.6836125712246424 2.277162589090568  0.
-2.229602819888464 2.3031689331355016  0.
-1.8079647649699582 2.3237452088764687  0.
-1.4179426217573954 2.3369795451660114  0.
-1.0584475335654515 2.341896889749737  0.
-0.7285479339347997 2.338239405902316  0.
-0.42791991049526273 2.3260360035951835  0.
-0.15699398374051024 2.3051611635675333  0.
0.08322444328059216 2.275077080177192  0.
0.29148258108214964 2.234825868508099  0.
0.4665205707649948 2.1831700297711576  0.
0.6071336130875113 2.1187515452499786  0.
-2.934832977821633 2.666610259841755  0.
-2.474259961225889 2.6979775772306396  0.
-2.0455328527818266 2.722724881351963  0.
-1.6474257463575266 2.7390112019767483  0.
-1.2780982674618164 2.7459724308062707  0.
-0.9357819841946176 2.7436139278253084  0.
-0.6194540599818745 2.7323861523054602  0.
-0.32919507210213494 2.7126560594591913  0.
-0.06606774773448501 2.684302137517638  0.
0.16837761885037356 2.6466188947892726  0.
0.3725775481398435 2.5985114953379744  0.
0.54518249388689 2.5387311983277954  0.
-3.1931334716957953 3.0958264445417107  0.
-2.7293315978927026 3.132649159291028  0.
-2.2969035506075444 3.1618010020576772  0.
-1.894577180260066 3.1813658010656005  0.
-1.5198324500555276 3.1905583785386664  0.
-1.1699057498069345 3.189680710179367  0.
-0.8427185610438784 3.179654216600823  0.
-0.5375250504700195 3.1614475967372506  0.
-0.2551100292314715 3.135521210125881  0.
0.0026752585879860576 3.1015202385903597  0.
0.23379065388514336 3.058399249824083  0.
0.4365236973327755 3.004891933110551  0.
-3.4587506450314023 3.5674783311848266  0.
-2.994547699323214 3.6098616970630153  0.
-2.561548361210385 3.643631560667771  0.
-2.1588281424043747 3.666461618747517  0.
-1.7832519531233906 3.677736438543047  0.
-1.4310154624054705 3.678148522431436  0.
-1.0987626809465145 3.669149052183711  0.
-0.7844031257293111 3.6523510701258317  0.
-0.4876905652389375 3.628963182303811  0.
-0.21040084198453796 3.5992233295658704  0.
0.04462274202797146 3.5622982831517622  0.
0.274927806863244 3.5165684214845223  0.
-3.7332900487923575 4.085569809088977  0.
-3.269953945128435 4.134071215993843  0.
-2.8387965084158857 4.172264796653602  0.
-2.4391827645037236 4.197613265473987  0.
-2.067231760858733 4.209821793893636  0.
-1.7180782876046592 4.2104184261031685  0.
-1.3871765836932788 4.201535381887815  0.
-1.0709168184533295 4.185406079473664  0.
-0.7672283907937297 4.1640056378020285  0.
-0.4763084658822632 4.138500245433256  0.
-0.20132019144475094 4.108325495187091  0.
0.05349111162874882 4.072086693626725  0.
-4.021614851265047 4.659404968843184  0.
-3.5567975818447133 4.714273017550386  0.
-3.128558605259081 4.756242979996521  0.
-2.7352059964813926 4.780708321959708  0.
-2.370667847949591 4.790108661914983  0.
-2.0292127891989247 4.787622552146984  0.
-1.705583931445166 4.7762691594547695  0.
-1.3951014996680182 4.758763019288138  0.
-1.0939179717960257 4.737615492136557  0.
-0.7995455112415248 4.715128607958267  0.
-0.5118671946791096 4.692705177640191  0.
-0.2363012792174115 4.666707944003028  0.
-4.335064445537381 5.31001040811289  0.
-3.8580912768765323 5.378380688217144  0.
-3.435071449549342 5.4135193134709665  0.
-3.0499670748388366 5.426315876945722  0.
-2.694846900421034 5.4236896299901  0.
-2.363525725441119 5.410795554842917  0.
-2.0507735519914703 5.391305694442539  0.
-1.7517575313435076 5.36796203628233  0.
-1.4618301086669174 5.343050471539089  0.
-1.176606400359049 5.318931650756389  0.
-0.8922571872508478 5.299023889745542  0.
-0.60522516617569 5.290858243705875  0.
-4.662384129279693 6.1431621401589585  0.
-4.194009271150502 6.171767109852894  0.
-3.773658288930316 6.167468543355147  0.
-3.3943607010416197 6.145614875474674  0.
-3.0466981183066304 6.114774219113954  0.
-2.724210387521778 6.079414866117895  0.
-2.421906256074579 6.042382119485105  0.
-2.135472001044621 6.005722280414373  0.
-1.8607345326836282 5.970964597700478  0.
-1.5932683776487775 5.939127489918216  0.
-1.3281837796717453 5.910400608289372  0.
-1.0604100897751125 5.882804481256982  0.
</DataArray>
<DataArray type="Float64" Name="Nodal_sigma_xx" NumberOfComponents="1" format="ascii" >
-9.242264424064585 
-6.749945478928356 
-3.071357653874428 
-1.017014175468511 
0.47913572434035895 
1.5411016814366247 
2.233556245249527 
2.586161488653868 
2.6183674003680144 
2.350006129004995 
1.7719575793583358 
1.4004348774217887 
-8.736878187290921 
-6.641942894597093 
-3.2817470503127213 
-1.1399230820582766 
0.37780725379523217 
1.4660922981235296 
2.1872797010870952 
2.572881208442552 
2.6409724434728137 
2.407796189634929 
1.8766779776628875 
1.5352950250284108 
-7.8643331148005675 
-6.382973459846929 
-3.6113095357395704 
-1.4132830619988583 
0.16047605901641884 
1.3014696433857877 
2.082586591273289 
2.5369663201416737 
2.6813813971220757 
2.527112006591402 
2.0897037649282133 
1.8027605418541357 
-7.234735741906222 
-6.083580735658188 
-3.7720078466848275 
-1.6901932351915108 
-0.07983758709450975 
1.1121502587508278 
1.9548181011002388 
2.481880390412812 
2.709714107345606 
2.6471409254687557 
2.306130346517877 
2.0681032928971517 
-6.785728592059247 
-5.806659716578743 
-3.8076419099893153 
-1.902450863830212 
-0.31730550804742585 
0.9095858518417247 
1.8086082803570847 
2.40780354246217 
2.721827968839305 
2.7571060548478474 
2.518962366664272 
2.3324040661030203 
-6.464941169929794 
-5.5728072592471705 
-3.7720080213063296 
-2.036777098874122 
-0.5205755018800508 
0.7108614823869737 
1.6527025779873628 
2.3177465470458354 
2.7159504057462334 
2.8508009922558273 
2.721856681529283 
2.591261787088517 
-6.230486026733719 
-5.381611555933606 
-3.7027819395295807 
-2.106334057023655 
-0.6753466579554211 
0.5335606995781774 
1.498689317212166 
2.217837733914907 
2.693440840325678 
2.9253236944646943 
2.9089238558733035 
2.8378117751175354 
-6.049246082639782 
-5.222954004507427 
-3.620701734205209 
-2.1302887105371635 
-0.7825157730043939 
0.38779440522622916 
1.357585347796288 
2.115952505068205 
2.6582638194063577 
2.980436812341993 
3.075287048438631 
3.0647093190398937 
-5.893971101483947 
-5.082658882896203 
-3.5339600507865963 
-2.1246814646413243 
-0.8507299173361458 
0.27495393392400425 
1.2359862577226326 
2.019196790166223 
2.6155336690962434 
3.017832779025361 
3.2175984702481877 
3.2655994452485766 
-5.740970914897121 
-4.944828752134691 
-3.442343797984756 
-2.099664675972752 
-0.8904010153100649 
0.1902063762229521 
1.1346919699489786 
1.9314320532962648 
2.569532939901422 
3.0400097842545835 
3.3341678247547097 
3.4360153563907443 
-5.568690058934205 
-4.7926660906062635 
-3.339876451445156 
-2.0592876722418847 
-0.9102265564525364 
0.12566680739314967 
1.0493743978676864 
1.851971534103265 
2.5218479265784963 
3.0488333047939187 
3.4245570411115835 
3.5736268895015693 
-5.357194382365705 
-4.608760517863908 
-3.216044606370228 
-2.001707394710404 
-0.9153136311779657 
0.07297825961040938 
0.9720214303385477 
1.7753449308133038 
2.4700597512173292 
3.0440475931238518 
3.4886670190809053 
3.677779801864965 
-5.088632555985635 
-4.375403202268568 
-3.055973158838577 
-1.918818590538659 
-0.9056564663305506 
0.025386996686440746 
0.8923564312378893 
1.6914244000687713 
2.406777251055483 
3.0218140100628896 
3.5253822914332185 
3.7483329131075402 
-4.748716433919558 
-4.075239675742885 
-2.8399881046459257 
-1.7950710089943023 
-0.8739320495359278 
-0.019665439548747526 
0.7993855972585903 
1.585274080385725 
2.318251320766394 
2.97280940538433 
3.530638200307391 
3.7837787714132434 
-4.328717191860796 
-3.6921109667860716 
-2.543088692139304 
-1.606213735004521 
-0.8026432359772608 
-0.056034493684000417 
0.6850709017218519 
1.437178850886021 
2.1814366337771536 
2.878600718285661 
3.4941189873229384 
3.778231250155784 
-3.8254493355341452 
-3.210281842281755 
-2.1346592559627364 
-1.3203064314800654 
-0.6634764039230439 
-0.06358909300048217 
0.5536450456952747 
1.228457326078103 
1.9600892435247745 
2.7030732630506513 
3.392219624486006 
3.7154807273735013 
-3.229122850752279 
-2.605170412495622 
-1.5779751774588826 
-0.9063399618200115 
-0.4269610958606247 
-0.01025746259448923 
0.43275724385524167 
0.9636707856029728 
1.6158461411013736 
2.378393094700816 
3.168079905009435 
3.553779095753474 
-2.4504959912915147 
-1.79847946870183 
-0.8418966776281402 
-0.3718713906374547 
-0.09358162319216952 
0.12649555068674576 
0.3687126842625109 
0.6960468435807432 
1.1655930777705912 
1.8249950873498975 
2.688476924678432 
3.1697395359347302 
-0.9532736999412863 
-0.570907325512787 
-0.038524712612070314 
0.17273399838282583 
0.2654934418677718 
0.3250612760327099 
0.3961643203806758 
0.5178588061033805 
0.7379574556600619 
1.119716748065681 
1.7496459880321606 
2.139272280572293 
0.08908167038157867 
0.18748159669195122 
0.34917327924921604 
0.42524106401099315 
0.4369885128345976 
0.4332399896467586 
0.43505881755678866 
0.46394724530554876 
0.5536117491767117 
0.7572508449519006 
1.1376596256927143 
1.3797441581873306 
</DataArray>
<DataArray type="Float64" Name="Nodal_sigma_yy" NumberOfComponents="1" format="ascii" >
-1.0175219814879335 
-0.8804534154942769 
-0.5932384713993075 
-0.3144826152195037 
-0.08517739281638376 
0.09353607223437899 
0.22872309889586523 
0.3247854353737538 
0.3875809146525309 
0.42513766154628746 
0.45850671096353046 
0.47822146222325795 
-0.774156926530483 
-0.7706454071021644 
-0.6609726234172458 
-0.43600576017081094 
-0.21226846879655412 
-0.017147138801394186 
0.1490092791341744 
0.2887249303954048 
0.40724559835015584 
0.5129030434887943 
0.6308840567921802 
0.6979794219752788 
-0.46758043717878406 
-0.573345709466585 
-0.6733053873845397 
-0.5833201902758842 
-0.39541247168008975 
-0.18440585280957195 
0.02943776008893411 
0.24163561076293588 
0.4540201347549331 
0.6727864901169904 
0.916045273278986 
1.047289484281893 
-0.3720549430993738 
-0.4317191247928075 
-0.5462984418111781 
-0.5658216634282394 
-0.44340983897984004 
-0.2453155201931143 
-0.010082791326258642 
0.24740847473416502 
0.5226905507774364 
0.8163244641797853 
1.1302404806697868 
1.2924717145609401 
-0.324158757808402 
-0.3457517121337417 
-0.41384082173351927 
-0.4540874920452904 
-0.3815865301476726 
-0.20941483994592874 
0.02792948330967426 
0.30916273143399653 
0.6239775461159648 
0.9675432262106483 
1.3350688372214183 
1.524034444683961 
-0.3000170462829722 
-0.2940772194924125 
-0.3053311292281635 
-0.3146205724895597 
-0.25156217503454814 
-0.09749438966298486 
0.1338055566619053 
0.4243238146778284 
0.761660482341731 
1.138092320541528 
1.54688518143474 
1.7584508789195576 
-0.28532956622580424 
-0.25971968095717507 
-0.21940146238892672 
-0.1779758927136099 
-0.09263429282185047 
0.06259878225361873 
0.29085402937432203 
0.5840032169293519 
0.9325291175703663 
1.3288921448857447 
1.7668752438125428 
1.9955185640712432 
-0.27328522582856907 
-0.2322595276724088 
-0.14805122448771138 
-0.053201986092421244 
0.07085025256592341 
0.24460158579606275 
0.4786964574139163 
0.7742696503684275 
1.127640910190523 
1.53406439132879 
1.9892890919188957 
2.2286175219176245 
-0.26056050974549116 
-0.20594384925794001 
-0.08399091728201365 
0.06004907574664369 
0.227602691659037 
0.4299588463522556 
0.6782701388417591 
0.9791587168832935 
1.3346411757281178 
1.7439477811082544 
2.2055038586216518 
2.4491522437265982 
-0.2454815884227776 
-0.177783477119618 
-0.022207373772511002 
0.16505559658751032 
0.37441508583517324 
0.6084732741378289 
0.8755296605113884 
1.1842416306898094 
1.5406567020501145 
1.947724239136344 
2.4064951842915723 
2.648874402544948 
-0.22723086065366652 
-0.14644470250033031 
0.040114876739905644 
0.2651492753207599 
0.5121072463909306 
0.7764357187964639 
1.062574030111802 
1.379256503946652 
1.7350246433672853 
2.1357448355058644 
2.5845670010535877 
2.821261472534538 
-0.20561704764297928 
-0.11178923718259662 
0.10386830932116439 
0.36254925639239904 
0.6429477219728321 
0.9343373520665599 
1.2370602787997096 
1.5591833640489243 
1.9111154032497875 
2.3012500001329674 
2.734441605392906 
2.962188118913312 
-0.18108538712671574 
-0.07473404539701844 
0.16827166507386696 
0.45800267393275185 
0.7691937736566907 
1.08495732513033 
1.4009487544709573 
1.724116103604212 
2.0670099164595803 
2.4411699726897185 
2.8535441434651982 
3.069827059205884 
-0.15481058309829543 
-0.0369816520036214 
0.23169282435114716 
0.551507555094864 
0.8928642044411507 
1.2321065082775593 
1.5591316662760697 
1.8785881887106135 
2.2053330436742984 
2.555987818792836 
2.941401260416104 
3.143618577474741 
-0.1278981129933565 
0.0003234741352844822 
0.2945775490106143 
0.6462260398836286 
1.0187221592222067 
1.3814854038498945 
1.7184141282562178 
2.0303389717866773 
2.3329538113018793 
2.6490628722221183 
2.998017653153551 
3.182598965140377 
-0.1021930080759018 
0.040308730689072 
0.36893886022172906 
0.7603632601014789 
1.1662741882215524 
1.5493373197863904 
1.891060718890115 
2.1893034867598518 
2.4582700242898907 
2.7263120976654234 
3.0220452657654704 
3.179735316697181 
-0.06082629125397128 
0.10632688811930746 
0.5020030987208521 
0.9616512690479961 
1.401798006641665 
1.7896223428557605 
2.115502281639203 
2.380092587179455 
2.593807207797825 
2.784842102337426 
3.0048481330336645 
3.130020785332558 
-0.012530585438047158 
0.29017932405813757 
0.8975131030978678 
1.4543612270781239 
1.90249052184198 
2.246470327823417 
2.5032312209227 
2.686328250264077 
2.8035257605184674 
2.8633671461113788 
2.896101375053554 
2.911780826760824 
0.8668414675857249 
1.3602575481661272 
2.1766699461026353 
2.701854400039683 
3.0233362850751417 
3.204814871715775 
3.288734542489215 
3.3016762265155615 
3.2573805608774564 
3.156217660600382 
2.9820259563854874 
2.8734946353705393 
1.727115016549932 
2.2910181871584197 
3.1506540137682455 
3.5922418765071633 
3.795873359040395 
3.8549026301709244 
3.819169301492595 
3.7189231921598225 
3.573992191714537 
3.3935007901448855 
3.1559319075452903 
3.017183211389626 
</DataArray>
<DataArray type="Float64" Name="Nodal_sigma_xy" NumberOfComponents="1" format="ascii" >
-0.18104488438617364 
-0.0006544002913319719 
0.31196477474460704 
0.5806398200371077 
0.8374461832876303 
1.0588801251273492 
1.2356095580190622 
1.3539963962215114 
1.395831614894476 
1.334779434294226 
1.121940975476794 
0.9692585776812409 
-0.4211752648375268 
-0.07277852023992075 
0.39265312466468316 
0.633140358777983 
0.8695864182544066 
1.0794555741086063 
1.251295802565968 
1.372168555546412 
1.4253149945151153 
1.3876698573863118 
1.2285493950755535 
1.114312554155142 
-0.7848920306024614 
-0.2526719986669155 
0.44396764852663206 
0.72044992867815 
0.9362511348405723 
1.1316950848356577 
1.298871501366103 
1.4277807800472435 
1.5050405208712783 
1.513395536918891 
1.4404979363827703 
1.383066789746197 
-0.9720404106327396 
-0.45006546840219913 
0.3376594973791799 
0.7438160753885608 
0.9931445449980525 
1.1963504505083398 
1.3709029350618356 
1.5143432575513132 
1.6181016812572067 
1.669328904420464 
1.6547219437070548 
1.6294743552409612 
-1.067036514016924 
-0.6033879790720649 
0.1788197999646395 
0.6903010705436979 
1.0156961145767816 
1.254793568356901 
1.4518323508475053 
1.6175293982585548 
1.750115756398911 
1.8409850183562773 
1.87633003317882 
1.8781094430296574 
-1.1123398650766563 
-0.7077373841123967 
0.029336829498691708 
0.5970594454289107 
0.9987776198916389 
1.293480604643149 
1.528087479458263 
1.7248105729079597 
1.8897655950410839 
2.019597127698726 
2.1031418685906185 
2.131458186751238 
-1.1292474647888047 
-0.7703302764442196 
-0.08499641441544697 
0.5009510824710541 
0.957997923385981 
1.3097669977932425 
1.590904257214465 
1.826171659324077 
2.027608966923899 
2.1972989783284858 
2.328835467753022 
2.3837360539897547 
-1.1271902033257506 
-0.7988378961851899 
-0.15690819286919405 
0.4257257770381775 
0.9140495610882644 
1.311492958627356 
1.638417638734632 
1.9153720533271075 
2.156083899408724 
2.366542104777357 
2.545347432886534 
2.6262004800025553 
-1.1095993845323884 
-0.798675880824644 
-0.18686756560352744 
0.38346645292858955 
0.8839349270291537 
1.3108333050775511 
1.6748906748805863 
1.9906607710202575 
2.270175505311254 
2.5207627548585916 
2.7446308767460823 
2.8498346460740174 
-1.0770498639097918 
-0.7730868905193214 
-0.17778176324748068 
0.3788831999971001 
0.8788215397748429 
1.3193741481714505 
1.7076863611347595 
2.0540958575166735 
2.3677826894527794 
2.655207079383777 
2.9199670212737625 
3.0469550437681754 
-1.028927465755927 
-0.7238851750139769 
-0.1328243472105886 
0.4129573182878993 
0.9051251527602862 
1.3460980606939794 
1.7445203702757348 
2.109860626105791 
2.4492805875493517 
2.7672921470585514 
3.066762041877563 
3.212154190484277 
-0.9644763686459278 
-0.6523000153951533 
-0.05481075569585371 
0.4853234588898336 
0.9666038886660954 
1.3976479505940729 
1.7922219192518805 
2.162719568277398 
2.516499074762973 
2.8562667044934056 
3.1826535167757566 
3.3425435851566623 
-0.8836931241392026 
-0.559833402424217 
0.05369821833901901 
0.5955644039835581 
1.066389338834277 
1.4799054652922674 
1.8571625785578973 
2.217438406649789 
2.5717288352025314 
2.9223094194726857 
3.26683220475876 
3.4371606412976003 
-0.788189550990336 
-0.44898571038239116 
0.1901139822767388 
0.7436570397546542 
1.2082563362799865 
1.5998929588175292 
1.9471178208254336 
2.279652991386161 
2.617360209116751 
2.9653986984405494 
3.318602895749164 
3.4954809814728067 
-0.68161031175649 
-0.32314815781487677 
0.3524167740353404 
0.9301363889790608 
1.3963268824267137 
1.766086217233278 
2.0732745298381996 
2.3587328793282474 
2.657054592625505 
2.9842896971605475 
3.335253332972848 
3.5148478622682093 
-0.5683472553517375 
-0.1832783092961956 
0.5436517620084144 
1.157931493762539 
1.6331249481744137 
1.9839157372453111 
2.2470337907219724 
2.4696330627435197 
2.7008588435333296 
2.9775494585962647 
3.3085446868742645 
3.4865779211701744 
-0.44437116792152387 
-0.014935057268174456 
0.7882001989663836 
1.4413719162349088 
1.9168749803823601 
2.2445000743818158 
2.4639059098435823 
2.619484254790337 
2.763350136310023 
2.9525715183787318 
3.2255596174782535 
3.385425105004442 
-0.2652750767837604 
0.27173137221034316 
1.1840912554599037 
1.8117315721391796 
2.2311870572358843 
2.505300042732885 
2.6751820616600477 
2.7715149994841815 
2.828690406894915 
2.8996736797391045 
3.0689985357017653 
3.191120224509883 
0.5930524529800522 
1.0766591779048649 
1.8208193516703417 
2.2357764634859425 
2.4886528379767126 
2.650989195954711 
2.752328926816144 
2.803342147966424 
2.807813550668869 
2.7723515937358663 
2.7214453519012456 
2.69693533295106 
1.338472813654941 
1.6896057451050692 
2.2024206243400277 
2.4480530288689524 
2.5848409389861358 
2.674395213468756 
2.735100138469914 
2.767376405721503 
2.7592537306519613 
2.682825532959565 
2.4731801083065754 
2.323552042916475 
</DataArray>
</PointData>
<CellData>
</CellData>
<Points>
<DataArray type="Float64" Name="Points" NumberOfComponents="3" format="ascii">
0.0 50.0 0.0
0.0 45.4545441 0.0
0.0 40.9090919 0.0
0.0 36.363636 0.0
0.0 31.818182 0.0
0.0 27.272728 0.0
0.0 22.727272 0.0
0.0 18.181818 0.0
0.0 13.636364 0.0
0.0 9.090909 0.0
0.0 4.5454545 0.0
0.0 0.0 0.0
2.52631569 50.5263176 0.0
2.52631569 46.1435394 0.0
2.52631569 41.7607651 0.0
2.52631569 37.3779907 0.0
2.52631569 32.9952164 0.0
2.52631569 28.6124401 0.0
2.52631569 24.2296658 0.0
2.52631569 19.8468895 0.0
2.52631569 15.4641151 0.0
2.52631569 11.0813398 0.0
2.52631569 6.69856453 0.0
2.52631569 2.31578946 0.0
5.05263138 51.0526314 0.0
5.05263138 46.8325348 0.0
5.05263138 42.612442 0.0
5.05263138 38.3923454 0.0
5.05263138 34.1722488 0.0
5.05263138 29.9521523 0.0
5.05263138 25.7320576 0.0
5.05263138 21.511961 0.0
5.05263138 17.2918663 0.0
5.05263138 13.0717707 0.0
5.05263138 8.85167503 0.0
5.05263138 4.63157892 0.0
7.57894754 51.578949 0.0
7.57894754 47.5215302 0.0
7.57894754 43.4641151 0.0
7.57894754 39.4067001 0.0
7.57894754 35.3492813 0.0
7.57894754 31.2918663 0.0
7.57894754 27.2344494 0.0
7.57894754 23.1770344 0.0
7.57894754 19.1196175 0.0
7.57894754 15.0622005 0.0
7.57894754 11.0047846 0.0
7.57894754 6.94736862 0.0
10.1052628 52.1052628 0.0
10.1052628 48.2105255 0.0
10.1052628 44.3157883 0.0
10.1052628 40.421051 0.0
10.1052628 36.5263176 0.0
10.1052628 32.6315804 0.0
10.1052628 28.7368412 0.0
10.1052628 24.8421059 0.0
10.1052628 20.9473686 0.0
10.1052628 17.0526314 0.0
10.1052628 13.1578951 0.0
10.1052628 9.26315784 0.0
12.6315794 52.6315804 0.0
12.6315794 48.8995209 0.0
12.6315794 45.1674652 0.0
12.6315794 41.4354057 0.0
12.6315794 37.7033501 0.0
12.6315794 33.9712906 0.0
12.6315794 30.2392349 0.0
12.6315794 26.5071774 0.0
12.6315794 22.7751198 0.0
12.6315794 19.0430622 0.0
12.6315794 15.3110046 0.0
12.6315794 11.5789471 0.0
15.1578951 53.1578941 0.0
15.1578951 49.5885162 0.0
15.1578951 46.0191383 0.0
15.1578951 42.4497604 0.0
15.1578951 38.8803825 0.0
15.1578951 35.3110046 0.0
15.1578951 31.7416267 0.0
15.1578951 28.1722488 0.0
15.1578951 24.6028709 0.0
15.1578951 21.033493 0.0
15.1578951 17.4641151 0.0
15.1578951 13.8947372 0.0
17.6842098 53.6842117 0.0
17.6842098 50.2775116 0.0
17.6842098 46.8708153 0.0
17.6842098 43.4641151 0.0
17.6842098 40.057415 0.0
17.6842098 36.6507187 0.0
17.6842098 33.2440186 0.0
17.6842098 29.8373203 0.0
17.6842098 26.4306221 0.0
17.6842098 23.0239239 0.0
17.6842098 19.6172256 0.0
17.6842098 16.2105255 0.0
20.2105255 54.2105255 0.0
20.2105255 50.966507 0.0
20.2105255 47.7224884 0.0
20.2105255 44.4784698 0.0
20.2105255 41.2344513 0.0
20.2105255 37.9904289 0.0
20.2105255 34.7464104 0.0
20.2105255 31.5023918 0.0
20.2105255 28.2583733 0.0
20.2105255 25.0143547 0.0
20.2105255 21.7703342 0.0
20.2105255 18.5263157 0.0
22.7368412 54.7368431 0.0
22.7368412 51.6555023 0.0
22.7368412 48.5741615 0.0
22.7368412 45.4928246 0.0
22.7368412 42.4114838 0.0
22.7368412 39.330143 0.0
22.7368412 36.2488022 0.0
22.7368412 33.1674652 0.0
22.7368412 30.0861244 0.0
22.7368412 27.0047855 0.0
22.7368412 23.9234447 0.0
22.7368412 20.8421059 0.0
25.2631588 55.2631569 0.0
25.2631588 52.3444977 0.0
25.2631588 49.4258385 0.0
25.2631588 46.5071754 0.0
25.2631588 43.5885162 0.0
25.2631588 40.669857 0.0
25.2631588 37.7511978 0.0
25.2631588 34.8325348 0.0
25.2631588 31.9138756 0.0
25.2631588 28.9952145 0.0
25.2631588 26.0765553 0.0
25.2631588 23.1578941 0.0
27.7894745 55.7894745 0.0
27.7894745 53.033493 0.0
27.7894745 50.2775116 0.0
27.7894745 47.5215302 0.0
27.7894745 44.7655487 0.0
27.7894745 42.0095711 0.0
27.7894745 39.2535896 0.0
27.7894745 36.4976082 0.0
27.7894745 33.7416267 0.0
27.7894745 30.9856453 0.0
27.7894745 28.2296658 0.0
27.7894745 25.4736843 0.0
30.3157902 56.3157883 0.0
30.3157902 53.7224884 0.0
30.3157902 51.1291847 0.0
30.3157902 48.5358849 0.0
30.3157902 45.942585 0.0
30.3157902 43.3492813 0.0
30.3157902 40.7559814 0.0
30.3157902 38.1626778 0.0
30.3157902 35.5693779 0.0
30.3157902 32.976078 0.0
30.3157902 30.3827744 0.0
30.3157902 27.7894745 0.0
32.8421059 56.8421059 0.0
32.8421059 54.4114838 0.0
32.8421059 51.9808617 0.0
32.8421059 49.5502396 0.0
32.8421059 47.1196175 0.0
32.8421059 44.6889954 0.0
32.8421059 42.2583733 0.0
32.8421059 39.8277512 0.0
32.8421059 37.3971291 0.0
32.8421059 34.966507 0.0
32.8421059 32.5358849 0.0
32.8421059 30.1052628 0.0
35.3684196 57.3684196 0.0
35.3684196 55.1004791 0.0
35.3684196 52.8325348 0.0
35.3684196 50.5645943 0.0
35.3684196 48.2966499 0.0
35.3684196 46.0287094 0.0
35.3684196 43.7607651 0.0
35.3684196 41.4928246 0.0
35.3684196 39.2248802 0.0
35.3684196 36.9569397 0.0
35.3684196 34.6889954 0.0
35.3684196 32.421051 0.0
37.8947372 57.8947372 0.0
37.8947372 55.7894745 0.0
37.8947372 53.6842117 0.0
37.8947372 51.578949 0.0
37.8947372 49.4736824 0.0
37.8947372 47.3684196 0.0
37.8947372 45.2631569 0.0
37.8947372 43.1578941 0.0
37.8947372 41.0526314 0.0
37.8947372 38.9473686 0.0
37.8947372 36.8421059 0.0
37.8947372 34.7368431 0.0
40.421051 58.421051 0.0