<?xml version="1.0"?>
<VTKFile type="UnstructuredGrid" version="0.1" byte_order="LittleEndian" compressor="vtkZLibDataCompressor">
<UnstructuredGrid>
<Piece NumberOfPoints="240" NumberOfCells="209">
<PointData>
<DataArray type="Float64" Name="displacement" NumberOfComponents="3" format="ascii" >
0.0 0.0  0.
0.0 0.0  0.
0.0 0.0  0.
0.0 0.0  0.
0.0 0.0  0.
0.0 0.0  0.
0.0 0.0  0.
0.0 0.0  0.
0.0 0.0  0.
0.0 0.0  0.
0.0 0.0  0.
0.0 0.0  0.
-0.0001959254908197103 0.00010398360124282153  0.
-7.925395075190522e-05 2.4001403381314258e-05  0.
-4.243096323865343e-05 1.1050873364971046e-05  0.
-1.3882878856010912e-05 1.413463201800049e-05  0.
7.241290900417542e-06 2.3515183951023177e-05  0.
2.280181656294122e-05 3.604363126207118e-05  0.
3.3058431149127055e-05 4.9295104016567334e-05  0.
3.82004150877545e-05 6.12586570533587e-05  0.
3.849584501638744e-05 6.997013766952019e-05  0.
3.455815060099888e-05 7.353608524250072e-05  0.
2.7722510425232798e-05 7.044393349371077e-05  0.
1.8354668732286778e-05 5.804830221589284e-05  0.
-0.00037052444208560175 0.00017422408059221547  0.
-0.00019418502179479176 9.967065121903223e-05  0.
-9.917419116574068e-05 6.110657120486751e-05  0.
-3.8079955910109897e-05 5.640333085087678e-05  0.
7.896869404889952e-06 6.644831531145231e-05  0.
4.179543465552409e-05 8.367413379369131e-05  0.
6.494961868737193e-05 0.00010354814285241645  0.
7.776356277621882e-05 0.00012243558968172226  0.
8.062758825562065e-05 0.00013705707134547727  0.
7.438776361964853e-05 0.00014436879234849064  0.
6.0851971806392964e-05 0.0001417885554989962  0.
4.2780036415163474e-05 0.00012803444319009802  0.
-0.0005308854448051335 0.0002579389496035502  0.
-0.00032032203967202565 0.00018851275722003483  0.
-0.00017631295191612313 0.0001432946712767372  0.
-7.613926707510336e-05 0.00012703335225061616  0.
-2.0525155308011183e-06 0.00013162112083511533  0.
5.3336270373353676e-05 0.00014749081759790584  0.
9.235235368368271e-05 0.00016843999716343789  0.
0.00011591782115376664 0.00018967105968245975  0.
0.000124527898072788 0.00020699406064264334  0.
0.00011901385675882017 0.00021659504461483216  0.
0.00010126682310951852 0.00021524645055733912  0.
7.502396387890924e-05 0.0002011724736434911  0.
-0.0006857059843242235 0.0003566817168444655  0.
-0.0004508134089920838 0.0002924574298181744  0.
-0.0002683548861011237 0.00024634702145225323  0.
-0.00013047522290218175 0.000223169412087038  0.
-2.5547497491857932e-05 0.0002201267860201993  0.
5.4064246004006875e-05 0.00023074790868166643  0.
0.00011194168021162737 0.0002485969438882332  0.
0.00014951858637026567 0.0002683161450313397  0.
0.00016746525313838232 0.0002851917105155442  0.
0.00016650096817936186 0.0002949239705871301  0.
0.00014821851574351938 0.00029371431444291077  0.
0.00011610876476983158 0.00027883025299374665  0.
-0.0008391741382877654 0.0004725101947880188  0.
-0.0005842711830558059 0.0004127133492401132  0.
-0.00037135784069130526 0.0003679462517980267  0.
-0.00019999289120541726 0.00034112413467790435  0.
-6.432303211372813e-05 0.0003315594828207111  0.
4.134487457067923e-05 0.0003354101365688618  0.
0.0001206208487594979 0.0003475784011718586  0.
0.0001753036630383287 0.00036294168208117163  0.
0.00020620241536259672 0.00037670592814974214  0.
0.0002139001350916668 0.00038436436671663026  0.
0.0001995005776905116 0.0003817234617508845  0.
0.00016558975014934052 0.0003651730417342504  0.
-0.0009937015582301945 0.0006070208800540076  0.
-0.0007209596407411777 0.0005509773465197615  0.
-0.00048318485001834304 0.000508161907187128  0.
-0.0002830313733551458 0.00047965584862235723  0.
-0.00011858508141540094 0.0004651837413021655  0.
1.3446909317071628e-05 0.0004625035402056072  0.
0.00011580752346787275 0.0004679711436901427  0.
0.00019016168454222298 0.0004773106256381127  0.
0.0002373174914964492 0.000486090861418092  0.
0.0002576927047416148 0.0004899085018024358  0.
0.0002518775678741533 0.00048444038437394727  0.
0.00022137464148503348 0.000465536153478867  0.
-0.0011507387770354842 0.0007618202639667012  0.
-0.0008615792226545865 0.0007090448238257878  0.
-0.0006029054297515267 0.0006682078361818914  0.
-0.0003782443456194213 0.0006390373484580614  0.
-0.00018787179360458495 0.0006210436472789641  0.
-3.0454900967516125e-05 0.0006127611771490262  0.
9.558005332399054e-05 0.0006116594851024454  0.
0.0001913681954949662 0.0006144203682653157  0.
0.00025748783340050663 0.0006172640425038764  0.
0.0002941360973302068 0.0006161697007927056  0.
0.00030144859970901515 0.000606973496694435  0.
0.0002799656194937713 0.0005853915544051607  0.
-0.0013111593005359285 0.0009385929399150852  0.
-0.001006825668780282 0.0008888023809960881  0.
-0.0007302560772387255 0.0008498157740502628  0.
-0.0004847785617203599 0.0008204806353682439  0.
-0.00027159663818788414 0.0007999699669639945  0.
-9.062965389157387e-05 0.0007871412706540496  0.
5.865354080844011e-05 0.0007802007144240106  0.
0.00017670555783621796 0.0007766592798459272  0.
0.00026369869878221285 0.0007734579406309239  0.
0.0003195372794140174 0.0007671287709292627  0.
0.00034398041802522915 0.0007539010100603186  0.
0.00033685746351872593 0.0007297147152060527  0.
-0.001475416631080487 0.0011391249000474767  0.
-0.0011572335507811047 0.0010922152112170706  0.
-0.0008652792104328567 0.001054976397864003  0.
-0.0006021930600141783 0.001025736853031417  0.
-0.000369302448205414 0.001003402871351815  0.
-0.0001671146493582798 0.0009869693304964584  0.
4.1920699880908435e-06 0.0009751231918810656  0.
0.00014444352118550148 0.0009660267892410277  0.
0.00025334008269901936 0.0009572857090483062  0.
0.0003304422098850075 0.0009460304477668432  0.
0.0003751965758009334 0.0009290121498095617  0.
0.00038698053185943197 0.0009026325924356893  0.
-0.0016436004926110546 0.0013652843576906722  0.
-0.001313111752329106 0.001321303921370416  0.
-0.0010080932187048963 0.0012858083336170065  0.
-0.000730306700490663 0.0012568550569757191  0.
-0.00048072928187952834 0.0012331943819635413  0.
-0.0002599285565501593 0.0012139181314815557  0.
-6.840970008357553e-05 0.0011980692105066526  0.
9.32083484738369e-05 0.001184331104603506  0.
0.00022418507200899326 0.0011708849084350055  0.
0.00032372126908200897 0.0011554249373261867  0.
0.0003909899964759578 0.0011352470653605746  0.
0.0004251113023586347 0.0011073110566920492  0.
-0.0018154612354411345 0.0016189780923702099  0.
-0.0014745034027429107 0.0015781003197126613  0.
-0.0011587358412123326 0.0015444720249065942  0.
-0.0008690373183994941 0.0015160294301487824  0.
-0.0006057705005987276 0.0014914478227992087  0.
-0.0003691719377151548 0.0014699289244803737  0.
-0.00015970475828135452 0.001450837510846238  0.
2.180583027303441e-05 0.001433323055732639  0.
0.00017427388905611217 0.0014160803332364197  0.
0.00029654613269321304 0.001397307152278132  0.
0.00038752896797995703 0.001374795144238006  0.
0.0004461847449137914 0.0013460378688909184  0.
-0.001990429774043383 0.0019020968261646222  0.
-0.0016411532923804675 0.0018645911248865341  0.
-0.0013170434449331797 0.0018330978130828787  0.
-0.0010182348171140138 0.001805492572525936  0.
-0.0007443584246335922 0.0017803970083134532  0.
-0.0004950227503494264 0.0017571279886789437  0.
-0.0002703007362385083 0.0017353792645189092  0.
-7.094506400247142e-05 0.0017147781213765786  0.
0.00010174578566555834 0.0016945297637197799  0.
0.0002462750285641944 0.0016732964311639358  0.
0.000361245660613099 0.001649288344161685  0.
0.00044546089124147044 0.001620433454355292  0.
-0.002167683996743352 0.0022164756900933166  0.
-0.0018124864391970454 0.0021826676807234044  0.
-0.0014825373467649316 0.0021537239289236964  0.
-0.0011775055815118002 0.002127427741110928  0.
-0.0008962827529842117 0.002102303091826344  0.
-0.0006376261591139862 0.002077744277824377  0.
-0.0004008636313274625 0.002053770600669056  0.
-0.00018633141494382206 0.0020305380891300732  0.
4.6560503874743705e-06 0.0020078319273479275  0.
0.00017026909009344114 0.001984798646451829  0.
0.0003087108918342126 0.001960010478521  0.
0.0004185224275946908 0.001931697230342184  0.
-0.0023463020372790095 0.002563929982261342  0.
-0.001987620307685369 0.0025341532747115997  0.
-0.0016543241834029421 0.0025082888415266266  0.
-0.0013460269329210854 0.0024839138120303916  0.
-0.001060952827849964 0.0024593501277024926  0.
-0.000796850983777665 0.00243400075786455  0.
-0.0005519655209618383 0.0024081534021646667  0.
-0.00032575493892979046 0.002382512678307112  0.
-0.00011918174647725456 0.0023575780276709497  0.
6.565691437597241e-05 0.002333111092836817  0.
0.00022640156647839752 0.0023080424749288694  0.
0.00036110439513434127 0.002280802397032855  0.
-0.0025256121993896354 0.0029465818918579037  0.
-0.0021654490663812354 0.0029210583514447264  0.
-0.0018310418752741425 0.002898848990099341  0.
-0.0015224112854773787 0.0028769896199058874  0.
-0.0012371572744907895 0.002853557171930997  0.
-0.000971940421131689 0.0028279148567737075  0.
-0.0007236818950090136 0.0028005417928405386  0.
-0.0004904813987681942 0.0027725881989266263  0.
-0.0002722472460178047 0.002745317478223868  0.
-7.092774380110706e-05 0.0027193834250929813  0.
0.00011035442482745396 0.002694287069558649  0.
0.000268742426597822 0.0026685224626685797  0.
-0.0027057705411204992 0.0033676834456768806  0.
-0.002344775560506255 0.003346642224738825  0.
-0.002010936665586957 0.0033283275563456166  0.
-0.001704747584416026 0.0033091586142191503  0.
-0.0014230580165534264 0.0032868476674164752  0.
-0.0011612801728688928 0.003260978052020645  0.
-0.0009150195589730859 0.0032322590572402467  0.
-0.0006808294411484536 0.0032020966062726083  0.
-0.00045685416821135394 0.003172267776609023  0.
-0.00024354972637325437 0.0031444163961012817  0.
-4.435328367728043e-05 0.003119051375085125  0.
0.00013623878198124436 0.0030952264487202814  0.
-0.002888902513689137 0.0038353398749127474  0.
-0.0025246034700567755 0.003817812460756286  0.
-0.002191953079532706 0.0038032601889205027  0.
-0.0018913550330226033 0.0037849434184602823  0.
-0.0016169806326780812 0.0037616350763387827  0.
-0.001362912623093301 0.0037339167493754674  0.
-0.0011238305757971228 0.0037029747323331598  0.
-0.0008951567087801788 0.003670302431810708  0.
-0.000673278579045105 0.003637736523223126  0.
-0.0004560920358514989 0.0036074722203363386  0.
-0.00024408753105752652 0.0035816219997885806  0.
-4.3488704935046345e-05 0.003559369475029815  0.
-0.0030794149157329686 0.004367185494174372  0.
-0.002701433989116941 0.004357142120769174  0.
-0.002374380885021287 0.004339505139947256  0.
-0.002083742067239884 0.004313589636548721  0.
-0.001820156336304552 0.004281902224925984  0.
-0.001576855310153965 0.00424674484781308  0.
-0.0013484844358707328 0.004209834240635632  0.
-0.0011303561991632142 0.004172503047868401  0.
-0.0009181160449164591 0.004136033454615592  0.
-0.0007077205480127568 0.0041021314455585035  0.
-0.0004957364619655419 0.004073697304387444  0.
-0.00027950654095019344 0.004056773849543757  0.
-0.0032557546736881678 0.005053276933157649  0.
-0.002886000400401462 0.005015762502178651  0.
-0.0025722539029521974 0.00496366620729804  0.
-0.002294499134111975 0.004907724571486603  0.
-0.0020424720125736574 0.004851848966187933  0.
-0.00180992900369005 0.004797817285668512  0.
-0.0015922947183060652 0.00474662884119779  0.
-0.0013857051638644004 0.004698917615875262  0.
-0.0011864655200705236 0.004655066070122792  0.
-0.000990664938416526 0.004615215968666875  0.
-0.0007938653732515214 0.004579243318203929  0.
-0.0005910285086753719 0.004546358552889124  0.
</DataArray>
<DataArray type="Float64" Name="Nodal_sigma_xx" NumberOfComponents="1" format="ascii" >
-63.86481552603484 
-46.870501728767195 
-21.740498973468796 
-7.297142471715052 
3.6879895827576608 
11.630704893283824 
16.7958961478537 
19.296825570611045 
19.33871604103755 
17.361489741637794 
13.88410871926742 
11.824855498759407 
-59.80123126389297 
-46.361200409126205 
-23.926810581900796 
-8.466105134414466 
2.866962392169363 
11.160965916549348 
16.65083334925917 
19.46642977096233 
19.779493577327344 
17.955113906087938 
14.56216844825963 
12.553655006218563 
-53.44648734007998 
-44.82633674569712 
-27.048781777442645 
-11.029527504285857 
1.032402901593277 
9.993085371881882 
16.155746248594003 
19.645955425402157 
20.58214168238505 
19.20293685190448 
16.03717722176799 
14.098658415304271 
-49.66536722532912 
-42.8930077347265 
-28.249145849677273 
-13.440988053511369 
-1.0578615311332664 
8.460883654772992 
15.287729220923467 
19.509321725255457 
21.19410432971801 
20.47995525557569 
17.705748578480204 
15.863452576560626 
-47.219110340029864 
-41.266087414721504 
-28.46505220359194 
-15.09332460871264 
-3.0566760010359277 
6.76062615925892 
14.145958779913926 
19.08123416477012 
21.568488252088635 
21.650150030344648 
19.480921267762 
17.862973188364442 
-45.64508150693588 
-40.01495370496454 
-28.249419890552765 
-16.085181588267748 
-4.685007184101894 
5.1043599132676585 
12.865015672493968 
18.423914340179216 
21.699342859646816 
22.64708793131967 
21.27577333573855 
20.015874296444945 
-44.62046620611943 
-39.09880055224544 
-27.89426450260346 
-16.62458426791585 
-5.899828044575815 
3.6513391423315564 
11.583363465678039 
17.627530992043525 
21.6197310696195 
23.443372790361444 
23.005594470471067 
22.211010501908778 
-43.923537539328095 
-38.428076246838984 
-27.532706707505607 
-16.894455904967963 
-6.767076702679935 
2.4568077139847437 
10.404487649290832 
16.785535717941528 
21.386744614510228 
24.04143013712859 
24.597457073902813 
24.33179148121273 
-43.38342072490941 
-37.898941977369105 
-27.203280348704155 
-17.019538792431536 
-7.384691707530812 
1.5017382576269307 
9.37325617967414 
15.967868459403748 
21.06050571057266 
24.462036339781164 
25.997079100002313 
26.275992569096466 
-42.854045966849526 
-37.402123215546936 
-26.888919339198168 
-17.06760488756903 
-7.8431298732656884 
0.7277882894632531 
8.481164006098748 
15.204155561751634 
20.6838388346207 
24.73017867477074 
27.170399631879874 
27.96787170768207 
-42.1999978335694 
-36.82380337755754 
-26.53654142880017 
-17.058354197796504 
-8.208443622506833 
0.06327960553719825 
7.68056905353732 
14.480317826990456 
20.2680542826107 
24.860647255478 
28.09914500357833 
29.361394517966072 
-41.290848370927584 
-36.044288572294 
-26.06397724119639 
-16.96880944681685 
-8.51465865684412 
-0.5600387843738922 
6.898379553674644 
13.741341261035945 
19.785185658398106 
24.84540469305806 
28.77132792489799 
30.434447805714345 
-40.002952999658724 
-34.93767823599025 
-25.35852456908621 
-16.73080578258528 
-8.75532160333936 
-1.1938223620257036 
6.04682730565084 
12.8939372491951 
19.161940804426198 
24.64164244705967 
29.16737889231614 
31.175102028969413 
-38.229836572327244 
-33.3746308526518 
-24.270059419177826 
-16.21968155928396 
-8.866865204591177 
-1.854304700493894 
5.035635758871818 
11.80625056374143 
18.26871639882576 
24.155097001838755 
29.240449469462888 
31.56045652815461 
-35.90009566050037 
-31.228628296850957 
-22.60160581824162 
-15.238048757866984 
-8.703179383781885 
-2.4869460153171272 
3.8010881681121136 
10.310504455938972 
16.897374402232607 
23.207809768257512 
28.883494792022056 
31.524866351863352 
-32.99555395332637 
-28.37490342795744 
-20.096780334011296 
-13.510316845158075 
-8.019630550546113 
-2.921047504810973 
2.378928960881996 
8.248805450280795 
14.733609585986695 
21.47044933262833 
27.864442754132767 
30.89961286959646 
-29.482735653801527 
-24.638859494413744 
-16.42532723242428 
-10.72233666360051 
-6.533730860260197 
-2.876958708041621 
0.9964362178168903 
5.650468369832573 
11.440238260665028 
18.347055287616012 
25.664520383410128 
29.282800301828207 
-24.95117072642607 
-19.45432285208781 
-11.16373990644443 
-6.813470360336126 
-4.196150930502413 
-2.1539459323003003 
0.03213440306808457 
2.944524475370061 
7.140341995992004 
13.129162102780603 
21.11164101075735 
25.593387552462268 
-15.261057494452585 
-10.973829422422163 
-5.09643680838264 
-2.8124552685998006 
-1.7396724917966087 
-1.0446725374439847 
-0.30203305240470896 
0.8544781927566313 
2.882812258781611 
6.429348345201721 
12.473452070114137 
16.269447839186185 
-8.18411778159167 
-5.561418730914397 
-2.117009812693904 
-1.0218665986538145 
-0.6434555607201736 
-0.4768944112179463 
-0.31029626812662536 
0.06085811024080956 
0.9585337777501926 
2.94372990327033 
6.9028186671316085 
9.508247279640564 
</DataArray>
<DataArray type="Float64" Name="Nodal_sigma_yy" NumberOfComponents="1" format="ascii" >
-17.46353704524151 
-14.331718948933617 
-8.706185387820593 
-3.8991271065831423 
0.22392079881835691 
3.388246499823001 
5.636857830352334 
6.989751190397298 
7.527619232594766 
7.411073328177664 
6.909121265830158 
6.60268050854613 
-10.805553676361635 
-10.405659809798115 
-8.244829518292265 
-4.581446456389339 
-1.0214177493385377 
1.9745585228601066 
4.309361528773377 
5.969457607298592 
7.002095841615895 
7.513052705803087 
7.736682542482663 
7.818306474571969 
-3.4782680960399333 
-5.064227297611337 
-6.407144874459626 
-5.080190000294704 
-2.7121243773280126 
-0.18138106680906863 
2.1903547281799938 
4.293386290871702 
6.103383749442807 
7.630749488459818 
8.943196818984289 
9.560389164366144 
-2.4930723149351106 
-3.0477133975387423 
-4.104820068396116 
-4.233476681033716 
-3.00176291952287 
-1.0814094764999325 
1.1099396254931482 
3.371821855077159 
5.610627675904691 
7.765438265671008 
9.730852467947479 
10.647280116566 
-2.0666473439224173 
-2.170040459959248 
-2.60189853958672 
-2.897058832846126 
-2.3391946729594677 
-0.9560523836496884 
0.9653538683361756 
3.215617369115058 
5.664814949849102 
8.21172646449991 
10.709616320100952 
11.922352193237856 
-1.9083275989773336 
-1.7521118478865327 
-1.651105058740951 
-1.6459181079959226 
-1.2073859791662946 
-0.11585150571716973 
1.581070562209433 
3.7550266426510293 
6.292582926417792 
9.09371547106467 
12.030448182142479 
13.513172362515432 
-1.8320787051251206 
-1.51995193672543 
-1.0079241343447567 
-0.5828663089532875 
0.049497448135150945 
1.1248347377353307 
2.7301102190944206 
4.848946934083713 
7.425657914609092 
10.394743605708097 
13.673864979646943 
15.378920085459733 
-1.77609183173879 
-1.3515387081199541 
-0.5156742151301671 
0.3224980300936462 
1.2800473533352594 
2.5252723323241466 
4.183448188754011 
6.314307968218548 
8.928867822154464 
12.012064651235466 
15.534668261139554 
17.40141444126375 
-1.714572359603152 
-1.1929285628104576 
-0.08471454251856925 
1.1242649652514047 
2.43707159562063 
3.9433633008610607 
5.7553925609404475 
7.966611007459581 
10.637462105131924 
13.80032950495513 
17.472888127128968 
19.438346901570213 
-1.636994440868381 
-1.0211253979173784 
0.33174185265895484 
1.867604477894675 
3.519541163876023 
5.310942980067182 
7.322649540824864 
9.654196741297879 
12.394217367907284 
15.609015984108545 
19.348962874505517 
21.3559615877751 
-1.5392374303228236 
-0.8282146207268553 
0.7542305006394174 
2.58181289835455 
4.542500342223375 
6.606444465597729 
8.819755336949232 
11.275513126940087 
14.076860686096222 
17.31158808358976 
21.048226295723325 
23.049620985429776 
-1.4210313048738468 
-0.6152810531900109 
1.1857512404327293 
3.2803952797452105 
5.522651391677844 
7.834702167039105 
10.226644797950563 
12.780869984626275 
15.611086523352213 
18.8223685381448 
22.49370486374083 
24.45253649670374 
-1.2856636351267867 
-0.3906176894674467 
1.615938894815877 
3.962670370575488 
6.471588376506081 
9.013396781955844 
11.555610831824815 
14.165849970108328 
16.97107041926529 
20.100056513997906 
23.646145702935303 
25.5323329212277 
-1.1410151114918783 
-0.16816804351268344 
2.02700122711573 
4.62039898769736 
7.396633613453203 
10.165361164282062 
12.83983560615587 
15.461801198560554 
18.172483764973684 
21.14088070325446 
24.492783925531544 
26.275913142404683 
-0.9937932468536108 
0.04077303680099825 
2.413681352637097 
5.2669407941108615 
8.324342462729142 
11.326843756167483 
14.126161104006037 
16.724283232310608 
19.263714739177622 
21.965192778539965 
25.02696764181254 
26.66787415801143 
-0.8639112273770115 
0.25175831448418545 
2.8543735821305063 
6.028982510175088 
9.395989848264282 
12.61494213859556 
15.500492260074692 
18.021391750277814 
20.30380767192151 
22.60694629866382 
25.21875934095567 
26.634892154923396 
-0.611086313689604 
0.632324812496359 
3.6979580690526896 
7.443189678750716 
11.142661691770513 
14.451372917729973 
17.243927150614866 
19.50945827309385 
21.34698850918652 
23.02528597322212 
24.978430892539155 
26.085583002051855 
-0.5371955433828185 
1.7823473672932235 
6.621931646810547 
11.282282634097669 
15.101986451960881 
18.050967004312277 
20.24334188693509 
21.786108619937362 
22.761427081258937 
23.304103257006172 
23.797219130481714 
24.102999086218112 
6.533707382619733 
10.750740429757364 
17.705488749717716 
22.112461588259727 
24.71659578639244 
26.08217302903021 
26.58774868220862 
26.468487120428087 
25.84602317493936 
24.746075482932447 
23.17500842368319 
22.27556171568673 
13.727569558644669 
18.838981626946293 
26.456304186907715 
30.08068185126478 
31.517231755918477 
31.65126692253407 
30.95211880031945 
29.696093103328895 
28.045178376977695 
26.0473973700839 
23.48964849308459 
22.019691036744646 
</DataArray>
<DataArray type="Float64" Name="Nodal_sigma_xy" NumberOfComponents="1" format="ascii" >
3.852601723856853 
2.3768527688270376 
0.8151274227254395 
1.4279228743088126 
3.1281741954759834 
5.252032118758727 
7.445878729708717 
9.37721170563357 
10.723985192706081 
11.17841272324554 
10.428756642019744 
9.71158170758141 
0.09002095215550088 
1.0091008638708352 
1.8921702092117014 
2.423565192978532 
3.8630152915015605 
5.734120771604298 
7.707748064560316 
9.48630652383226 
10.778419571964488 
11.301543888787423 
10.834375283248425 
10.33220331098179 
-5.068011365994679 
-1.617840606722328 
2.6034130974553644 
3.91201230506209 
5.167095496221349 
6.707967685730986 
8.360621090041768 
9.914131479591834 
11.140081595046789 
11.801414409701707 
11.737837902287524 
11.51471644938233 
-7.07236783496003 
-3.707461980980775 
1.5026298426132632 
4.289141014326766 
6.015917185563758 
7.593568457957366 
9.167810456972745 
10.656770028083999 
11.905485537872245 
12.716465731131951 
12.879321892048246 
12.772995494141867 
-7.962401099358195 
-5.064526570781184 
0.07275155789814453 
3.7700398323818263 
6.271814921431011 
8.214735665726803 
9.945149668014011 
11.528809477861648 
12.89713109768543 
13.89928488167023 
14.309768872063604 
14.334144561107557 
-8.376253927362733 
-5.913355390053445 
-1.1621867826667576 
2.9087817556662685 
6.045654551189384 
8.501897898335907 
10.56805789209623 
12.391246420415104 
13.98141679104298 
15.24545619358518 
15.988237091879778 
16.198051403822458 
-8.563682457280809 
-6.416125708828668 
-2.0685975950136917 
2.0624887059294332 
5.5893047300127305 
8.513994013480179 
10.990911834640125 
13.154669350262607 
15.057102470395108 
16.65871197927101 
17.820402281963073 
18.26708830648475 
-8.620189217947633 
-6.670599203401176 
-2.6383917839041073 
1.4110477679022488 
5.12120390801549 
8.384522947835285 
11.244446085497971 
13.783307757370746 
16.053766012849398 
18.04989307154336 
19.69005337313239 
20.40562129073373 
-8.576951042554942 
-6.729182452361762 
-2.897991185318483 
1.0309931363874547 
4.787511080907455 
8.249203884514076 
11.404155126552698 
14.287782303587248 
16.93326749885886 
19.34501510191389 
21.482997675327393 
22.475305402019092 
-8.43819423082152 
-6.6167988180664015 
-2.87603660558656 
0.9472191320783545 
4.673194063302591 
8.214278003321834 
11.553725727019877 
14.706093798048794 
17.685626699269353 
20.49181827317219 
23.104267537809598 
24.35813983569867 
-8.197619328300394 
-6.343440346362638 
-2.5944034872405335 
1.163612921994486 
4.82420614647658 
8.35320412490482 
11.764837313799747 
15.083687198002355 
18.318829514729476 
21.460089629217368 
24.487195956286968 
25.96940450429129 
-7.84704987956752 
-5.913125408309933 
-2.0680737471435227 
1.679576999413626 
5.268649870515767 
8.717617487265775 
12.093850379134265 
15.461953219968644 
18.84765805945964 
22.235833156873248 
25.593153486299002 
27.259715306540066 
-7.383296862146097 
-5.331535726489666 
-1.3085820801465369 
2.497897471560411 
6.033608332572877 
9.354392251718469 
12.591279675405112 
15.877800268437083 
19.286390639635563 
22.81192708598821 
26.402464955756642 
28.206063481872206 
-6.815711457927609 
-4.6132087247168165 
-0.3283382362589755 
3.6269875138661325 
7.155618288260948 
10.322986546063962 
13.3203355461479 
16.374988940755014 
19.64855497190943 
23.178005433055162 
26.898016693118883 
28.793143650381854 
-6.173499735708305 
-3.784975779695568 
0.8607987840009059 
5.0817972914562874 
8.680842460278718 
11.701814069877404 
14.375988074021375 
17.028695446137686 
19.95858162776843 
23.312480337491547 
27.04267350597101 
28.98464643783786 
-5.504559681630578 
-2.869000021067558 
2.2769508834588086 
6.898529752847701 
10.654301181049664 
13.560398473977388 
15.868906130228341 
17.96611131670955 
20.289328042306202 
23.187205247350434 
26.747299912878397 
28.682523078577226 
-4.826174315162381 
-1.795429970884165 
4.097841034690841 
9.214534926950167 
13.103354731289013 
15.872158888932667 
17.805540768750088 
19.280108898890468 
20.772378709935065 
22.829911594950552 
25.855034578484123 
27.639556653456506 
-3.9082798909173255 
0.07257839650589482 
7.139293760363836 
12.372284440930546 
15.96338136178855 
18.338748886996157 
19.830398172698004 
20.719427228528154 
21.343131594146957 
22.220905955128043 
24.160298647882605 
25.516837366664987 
1.9443078575369213 
6.1490970289776925 
12.66614165251351 
16.349354833929965 
18.582117137590373 
19.98618977576133 
20.83060178182904 
21.228893101076945 
21.250060986615086 
21.020933724359455 
20.896677132214908 
20.92656831085199 
7.223115363877989 
10.952673074969216 
16.201835900229106 
18.479118585592705 
19.68601286666078 
20.42307389333625 
20.873492487105338 
21.05395628590479 
20.884858912404308 
20.203696311119508 
18.708814526135576 
17.708108447103275 
</DataArray>
</PointData>
<CellData>
</CellData>
<Points>
<DataArray type="Float64" Name="Points" NumberOfComponents="3" format="ascii">
0.0 50.0 0.0
0.0 45.4545441 0.0
0.0 40.9090919 0.0
0.0 36.363636 0.0
0.0 31.818182 0.0
0.0 27.272728 0.0
0.0 22.727272 0.0
0.0 18.181818 0.0
0.0 13.636364 0.0
0.0 9.090909 0.0
0.0 4.5454545 0.0
0.0 0.0 0.0
2.52631569 50.5263176 0.0
2.52631569 46.1435394 0.0
2.52631569 41.7607651 0.0
2.52631569 37.3779907 0.0
2.52631569 32.9952164 0.0
2.52631569 28.6124401 0.0
2.52631569 24.2296658 0.0
2.52631569 19.8468895 0.0
2.52631569 15.4641151 0.0
2.52631569 11.0813398 0.0
2.52631569 6.69856453 0.0
2.52631569 2.31578946 0.0
5.05263138 51.0526314 0.0
5.05263138 46.8325348 0.0
5.05263138 42.612442 0.0
5.05263138 38.3923454 0.0
5.05263138 34.1722488 0.0
5.05263138 29.9521523 0.0
5.05263138 25.7320576 0.0
5.05263138 21.511961 0.0
5.05263138 17.2918663 0.0
5.05263138 13.0717707 0.0
5.05263138 8.85167503 0.0
5.05263138 4.63157892 0.0
7.57894754 51.578949 0.0
7.57894754 47.5215302 0.0
7.57894754 43.4641151 0.0
7.57894754 39.4067001 0.0
7.57894754 35.3492813 0.0
7.57894754 31.2918663 0.0
7.57894754 27.2344494 0.0
7.57894754 23.1770344 0.0
7.57894754 19.1196175 0.0
7.57894754 15.0622005 0.0
7.57894754 11.0047846 0.0
7.57894754 6.94736862 0.0
10.1052628 52.1052628 0.0
10.1052628 48.2105255 0.0
10.1052628 44.3157883 0.0
10.1052628 40.421051 0.0
10.1052628 36.5263176 0.0
10.1052628 32.6315804 0.0
10.1052628 28.7368412 0.0
10.1052628 24.8421059 0.0
10.1052628 20.9473686 0.0
10.1052628 17.0526314 0.0
10.1052628 13.1578951 0.0
10.1052628 9.26315784 0.0
12.6315794 52.6315804 0.0
12.6315794 48.8995209 0.0
12.6315794 45.1674652 0.0
12.6315794 41.4354057 0.0
12.6315794 37.7033501 0.0
12.6315794 33.9712906 0.0
12.6315794 30.2392349 0.0
12.6315794 26.5071774 0.0
12.6315794 22.7751198 0.0
12.6315794 19.0430622 0.0
12.6315794 15.3110046 0.0
12.6315794 11.5789471 0.0
15.1578951 53.1578941 0.0
15.1578951 49.5885162 0.0
15.1578951 46.0191383 0.0
15.1578951 42.4497604 0.0
15.1578951 38.8803825 0.0
15.1578951 35.3110046 0.0
15.1578951 31.7416267 0.0
15.1578951 28.1722488 0.0
15.1578951 24.6028709 0.0
15.1578951 21.033493 0.0
15.1578951 17.4641151 0.0
15.1578951 13.8947372 0.0
17.6842098 53.6842117 0.0
17.6842098 50.2775116 0.0
17.6842098 46.8708153 0.0
17.6842098 43.4641151 0.0
17.6842098 40.057415 0.0
17.6842098 36.6507187 0.0
17.6842098 33.2440186 0.0
17.6842098 29.8373203 0.0
17.6842098 26.4306221 0.0
17.6842098 23.0239239 0.0
17.6842098 19.6172256 0.0
17.6842098 16.2105255 0.0
20.2105255 54.2105255 0.0
20.2105255 50.966507 0.0
20.2105255 47.7224884 0.0
20.2105255 44.4784698 0.0
20.2105255 41.2344513 0.0
20.2105255 37.9904289 0.0
20.2105255 34.7464104 0.0
20.2105255 31.5023918 0.0
20.2105255 28.2583733 0.0
20.2105255 25.0143547 0.0
20.2105255 21.7703342 0.0
20.2105255 18.5263157 0.0
22.7368412 54.7368431 0.0
22.7368412 51.6555023 0.0
22.7368412 48.5741615 0.0
22.7368412 45.4928246 0.0
22.7368412 42.4114838 0.0
22.7368412 39.330143 0.0
22.7368412 36.2488022 0.0
22.7368412 33.1674652 0.0
22.7368412 30.0861244 0.0
22.7368412 27.0047855 0.0
22.7368412 23.9234447 0.0
22.7368412 20.8421059 0.0
25.2631588 55.2631569 0.0
25.2631588 52.3444977 0.0
25.2631588 49.4258385 0.0
25.2631588 46.5071754 0.0
25.2631588 43.5885162 0.0
25.2631588 40.669857 0.0
25.2631588 37.7511978 0.0
25.2631588 34.8325348 0.0
25.2631588 31.9138756 0.0
25.2631588 28.9952145 0.0
25.2631588 26.0765553 0.0
25.2631588 23.1578941 0.0
27.7894745 55.7894745 0.0
27.7894745 53.033493 0.0
27.7894745 50.2775116 0.0
27.7894745 47.5215302 0.0
27.7894745 44.7655487 0.0
27.7894745 42.0095711 0.0
27.7894745 39.2535896 0.0
27.7894745 36.4976082 0.0
27.7894745 33.7416267 0.0
27.7894745 30.9856453 0.0
27.7894745 28.2296658 0.0
27.7894745 25.4736843 0.0
30.3157902 56.3157883 0.0
30.3157902 53.7224884 0.0
30.3157902 51.1291847 0.0
30.3157902 48.5358849 0.0
30.3157902 45.942585 0.0
30.3157902 43.3492813 0.0