<?xml version="1.0"?>
<VTKFile type="UnstructuredGrid" version="0.1" byte_order="LittleEndian" compressor="vtkZLibDataCompressor">
<UnstructuredGrid>
<Piece NumberOfPoints="240" NumberOfCells="209">
<PointData>
<DataArray type="Float64" Name="displacement" NumberOfComponents="3" format="ascii" >
0.0 0.0  0.
0.0 0.0  0.
0.0 0.0  0.
0.0 0.0  0.
0.0 0.0  0.
0.0 0.0  0.
0.0 0.0  0.
0.0 0.0  0.
0.0 0.0  0.
0.0 0.0  0.
0.0 0.0  0.
0.0 0.0  0.
-0.3550564660434666 0.049921176175248654  0.
-0.16625334815522544 0.021417420884113046  0.
-0.09562234450428636 0.030913601109807735  0.
-0.0413012534828723 0.0456419953474999  0.
0.0005282576827501373 0.06068957819127527  0.
0.032663068132783135 0.07469143245614701  0.
0.05562300438425624 0.08633946423458257  0.
0.06947098231330039 0.09440976015232241  0.
0.07414162521643365 0.09749644440123587  0.
0.0697297011416984 0.09386986429258778  0.
0.05672709174433139 0.0812760353753345  0.
0.03312017996618556 0.053428490625416186  0.
-0.656804906298636 0.1342474360277838  0.
-0.3721529573109073 0.11147195995666327  0.
-0.2112126790167123 0.10772009114690334  0.
-0.10104879026146091 0.124160262769177  0.
-0.015049426680935675 0.14542539002455127  0.
0.051640702712343264 0.16640850209359734  0.
0.1008546944280978 0.1841470634227397  0.
0.13285450106655872 0.19618866263065762  0.
0.14745430364101333 0.20012525434088074  0.
0.1445292759452492 0.19330622130766167  0.
0.12436216779146468 0.17256981151594641  0.
0.08685689489491774 0.1339018574989987  0.
-0.9319925578275663 0.2528709079591204  0.
-0.5911809609433601 0.23617355396409212  0.
-0.3537674764480459 0.22888736790454328  0.
-0.18250306018240875 0.2389789753430735  0.
-0.050188201783706185 0.2591178013888359  0.
0.053712569672785496 0.2810667161094351  0.
0.13240276848330515 0.300019011988421  0.
0.186735423079653 0.312379839882201  0.
0.2165221635064217 0.31494230731721823  0.
0.22135232802455831 0.30450889829400807  0.
0.2011786299515149 0.27774601545025956  0.
0.15668430509136957 0.2314388283319264  0.
-1.1949618829741038 0.4002594028927509  0.
-0.8150821203401188 0.39009756334548595  0.
-0.5178337828468744 0.384229330315296  0.
-0.28837626197876187 0.3897585215699939  0.
-0.10777408370175914 0.40487239750074344  0.
0.03562907393811076 0.4234312687332464  0.
0.14684013843562582 0.439734056386432  0.
0.2274361964193896 0.44935408154370393  0.
0.27743862334422204 0.44848853167215585  0.
0.2962466549223576 0.433574064400579  0.
0.2833806420001032 0.40114931606243415  0.
0.23925304130647565 0.3480704135071865  0.
-1.453569257747226 0.5755378580028412  0.
-1.042557133195654 0.5717706856638344  0.
-0.6984492339645323 0.5696753978865021  0.
-0.4176742035018033 0.5735596461742386  0.
-0.18978076876244676 0.5837869985576807  0.
-0.005449273479958898 0.5968877333485677  0.
0.14076512057351728 0.6080577230327687  0.
0.2511097884495564 0.6127245386367167  0.
0.3259127738647191 0.6068051486933  0.
0.36452667923235454 0.5865226352111732  0.
0.3660641990656545 0.5482898309040907  0.
0.3302028873707079 0.48879137738894474  0.
-1.7125647279029028 0.7792444788109468  0.
-1.2746822688051616 0.7817158737116063  0.
-0.8928684782852929 0.7843066706003927  0.
-0.5683636327102073 0.7887931589399517  0.
-0.29661526723665926 0.7957696192579652  0.
-0.07164721818690184 0.8035103215753717  0.
0.1110761652552381 0.8086440432820701  0.
0.25391377479617117 0.8072203668183816  0.
0.3574307221301424 0.7953045282832003  0.
0.42102308793647397 0.7691239108763153  0.
0.44351845889987884 0.7250518967280463  0.
0.4238349729625772 0.659621360473026  0.
-1.9750667683107557 1.0126686873714403  0.
-1.513140667485349 1.0213290376504978  0.
-1.1001266505543321 1.0289142045795208  0.
-0.7387779655092133 1.0354119522607867  0.
-0.4278501406404079 1.0409386885371905  0.
-0.16420805776633904 1.0445706748387136  0.
0.055186883066132744 1.0441384244229033  0.
0.23222475287713662 1.036621224295427  0.
0.36745307175792535 1.0186118953609555  0.
0.46030524424702196 0.9866007505682364  0.
0.5094614026343253 0.9370847877982967  0.
0.5132857049424102 0.866590950680217  0.
-2.24321300414348 1.2775700017104943  0.
-1.7596129378312104 1.2924862159019346  0.
-1.3203253485393875 1.3051648799869102  0.
-0.9280343126113382 1.3145031946520933  0.
-0.5829492527561174 1.3200676579807162  0.
-0.28378274814512267 1.3211927959532934  0.
-0.028909358007461926 1.3164951551759623  0.
0.18279921433255342 1.303825277563911  0.
0.3516081019447911 1.280467379182613  0.
0.4768951431177219 1.2433802851703277  0.
0.5572844415321909 1.1893640597832311  0.
0.5908543383505603 1.115125998246524  0.
-2.518455192786168 1.5760377669737986  0.
-2.015573331271996 1.5973578526442853  0.
-1.5541127002286512 1.6151832116987663  0.
-1.1359742964602737 1.6278567573603528  0.
-0.761672125957932 1.634564295116974  0.
-0.4308250408844726 1.6346977593313925  0.
-0.14279072392445388 1.6273480050928424  0.
0.1028125543932873 1.6110451897664173  0.
0.30582478808376545 1.5837441043645204  0.
0.46545761670678865 1.5429573203835967  0.
0.5803058092686478 1.4859148584959936  0.
0.6483862794533719 1.409664121945457  0.
-2.801688644563152 1.9103901363406535  0.
-2.282211464537386 1.938294366294496  0.
-1.8023465212555305 1.961328585642386  0.
-1.3629512289482553 1.9776557461620294  0.
-0.9641971589623609 1.9862943861172657  0.
-0.6058864438312634 1.9866894420650703  0.
-0.287850465150089 1.9782578095846135  0.
-0.01023848570212588 1.9600441042125332  0.
0.22636294978245242 1.9305741267967564  0.
0.42092740038763776 1.887893315175317  0.
0.5719979278728737 1.829699608953322  0.
0.6776597421764794 1.753465674399524  0.
-3.093326665142611 2.2830814117658553  0.
-2.5603844104321745 2.317732118376879  0.
-2.065864916735001 2.3460578214203447  0.
-1.6095917712260068 2.3662704863105644  0.
-1.191061037408614 2.377393784107203  0.
-0.8097569810045573 2.379000753837908  0.
-0.4655129436478809 2.3708144729635863  0.
-0.15871281242687085 2.352317552783789  0.
0.10973438366351457 2.322518160033862  0.
0.33853727358374425 2.2799229117811537  0.
0.5261370343310403 2.2226557421488393  0.
0.6707123039599366 2.1486074310010115  0.
-3.3933620720023225 2.696617143713934  0.
-2.8505798866847125 2.7381161437802226  0.
-2.3453131662254365 2.7718351434271318  0.
-1.876550610733041 2.7961279338805265  0.
-1.4429899663540235 2.810120516760286  0.
-1.0434509454505418 2.813597291502128  0.
-0.6773582061841733 2.806642121989291  0.
-0.34499953414605167 2.7891936352660944  0.
-0.047448984019925325 2.7607153525221513  0.
0.21374154766560902 2.7201100121234374  0.
0.4368364494778071 2.6658388868862595  0.
0.6200396139831935 2.5961243116616632  0.
-3.7014953561355033 3.1534917697632263  0.
-3.1529017128810004 3.201856961138824  0.
-2.640989590359844 3.241089637324775  0.
-2.164262907990292 3.269636960141835  0.
-1.720640149078538 3.2867495191364413  0.
-1.3080453126719165 3.292479546700314  0.
-0.9251054788720637 3.2873503255460923  0.
-0.5716328962925512 3.271850225357831  0.
-0.2486488511067459 3.245964203670289  0.
0.04205366251395475 3.2089722981939692  0.
0.29844814602503006 3.159585695080653  0.
0.5186151568001484 3.0962119105521424  0.
-4.017396771089356 3.6562133386748625  0.
-3.467127520133703 3.711414195004227  0.
-2.9527348388629795 3.7562842640935292  0.
-2.472701199589953 3.7892044876412863  0.
-2.024271063020811 3.8095149966359796  0.
-1.6043378743938599 3.817589402229696  0.
-1.2103878257599219 3.8144568181714527  0.
-0.8412622620038188 3.8012670918395535  0.
-0.49753083116019436 3.778694789013224  0.
-0.18117079237208583 3.7465092583078445  0.
0.10534632383361042 3.7035855263875934  0.
0.35972167344401346 3.648373505557199  0.
-4.3412851055925685 4.20766980447407  0.
-3.792934531842111 4.269682222793293  0.
-3.27995315839592 4.320309542587109  0.
-2.801233086524068 4.357456067698433  0.
-2.3534230775515184 4.380645825373598  0.
-1.9323520588740863 4.390686898594739  0.
-1.5341706539347097 4.389210832996208  0.
-1.156261748730985 4.3780850280865815  0.
-0.7979574654034622 4.35883330989404  0.
-0.46093364066444376 4.331980067801062  0.
-0.14839327514606251 4.296761969871357  0.
0.136608665082539 4.251334411083795  0.
-4.674974836670857 4.812017433181813  0.
-4.130439813523912 4.881438561664984  0.
-3.621955091177533 4.937533190673278  0.
-3.148803068694067 4.978003938716989  0.
-2.7068931836889885 5.002633126266078  0.
-2.29093297073672 5.0131911061333145  0.
-1.8958533520162206 5.0121315242703135  0.
-1.5174762680796603 5.002050058902804  0.
-1.1531778613982477 4.985318620856284  0.
-0.8027380236792362 4.963537730004315  0.
-0.46936287797961057 4.936451985977797  0.
-0.15800957694610496 4.902569440075415  0.
-5.024178067311251 5.479094470711003  0.
-4.481339186667574 5.556178438513421  0.
-3.978880898475597 5.617268456418578  0.
-3.515160541013005 5.6572078548226665  0.
-3.083626977180978 5.678909888885  0.
-2.6780790431632213 5.686090817036524  0.
-2.292755684063753 5.6823027884073545  0.
-1.9224378918003626 5.6707552505305205  0.
-1.5627192855246497 5.654426701476868  0.
-1.2105698591488212 5.636104020635276  0.
-0.8653849752945335 5.617789015631589  0.
-0.5326776796171288 5.596018702281717  0.
-5.402835766298065 6.230424937819008  0.
-4.849973634615416 6.325021049446159  0.
-4.3564986584823435 6.378896265298233  0.
-3.904381216974113 6.405887963556607  0.
-3.4853281865548102 6.41408679178633  0.
-3.092788640922168 6.409521234091683  0.
-2.721130472874144 6.396537660690981  0.
-2.3650530682413358 6.378429765651357  0.
-2.0193685480064616 6.357965273401953  0.
-1.679125192377522 6.337967105715386  0.
-1.3400180166816504 6.322417134689338  0.
-0.9979705692086278 6.320400489957027  0.
-5.80208830381917 7.188505473618063  0.
-5.262807881582735 7.234912783250945  0.
-4.773544370210964 7.244196484251433  0.
-4.328913465053049 7.232429611581795  0.
-3.9192288458268547 7.209202506474495  0.
-3.537666676347272 7.179705075730081  0.
-3.1788559255169844 7.14733612978718  0.
-2.838080112381871 7.114602752993554  0.
-2.510692382304633 7.083440017492165  0.
-2.1916477430498262 7.055211042676862  0.
-1.8752532477561978 7.030287143891259  0.
-1.5557205880324667 7.006162659627134  0.
</DataArray>
<DataArray type="Float64" Name="Nodal_sigma_xx" NumberOfComponents="1" format="ascii" >
-10.463556506349995 
-7.964749677406445 
-4.128468601347937 
-1.7362567088726417 
0.1437867790921578 
1.5857983752745577 
2.6073642294464316 
3.1985202492663576 
3.349950530617106 
3.067640268473773 
2.335256627459326 
1.8503176107129722 
-9.855379468227007 
-7.803531044755005 
-4.3449685063519485 
-1.8788440985069177 
0.01670074635336194 
1.4825941718580402 
2.535314066380953 
3.1674378646140906 
3.3676660383548067 
3.1360487218492485 
2.4705802889274606 
2.0277945689833463 
-8.822762737333624 
-7.440166262556668 
-4.663445716007367 
-2.1891993526651055 
-0.2534686780932318 
1.2590921979042597 
2.3760329301888645 
3.092637934703347 
3.3955644569545758 
3.2763698342183667 
2.745461662394843 
2.3800578703333417 
-8.099560803527446 
-7.04749146417981 
-4.778140779780195 
-2.4879874567188223 
-0.5450307100170984 
1.0080884096516822 
2.1887460564929726 
2.992718299847743 
3.4059437378265 
3.4154043270653336 
3.0237933707890043 
2.7295983157626695 
-7.5886520662608365 
-6.695391432655084 
-4.754223921272822 
-2.6981462136154093 
-0.8229488541495383 
0.7462964212558179 
1.9811086812239902 
2.86943080432961 
3.394803287970631 
3.540015429041552 
3.2964086759812647 
3.0772336565332417 
-7.222241951997871 
-6.402265887095835 
-4.659521970931481 
-2.8125318629888247 
-1.0500057319894978 
0.4968342535771242 
1.7660153437363444 
2.7281714803088297 
3.3610413356406745 
3.6428679729708913 
3.5552274955738654 
3.417119078517567 
-6.950475326136914 
-6.163192642347385 
-4.5370544839035265 
-2.852587965550882 
-1.2125370384009984 
0.28145783546565234 
1.5593713779956033 
2.57816843737577 
3.307541307065152 
3.7208964598592393 
3.7928453024103863 
3.7403733545915303 
-6.735919023726005 
-5.963739822102889 
-4.407911916873414 
-2.8431055784348827 
-1.3150117462879751 
0.11122718752165334 
1.375349946635193 
2.430454805917341 
3.2404184625262342 
3.774488954615948 
4.003146835416014 
4.037413044071759 
-6.548742313256337 
-5.786245904088238 
-4.2783953186054 
-2.8025897480634274 
-1.3696598261562378 
-0.01373162369078157 
1.2218045066822882 
2.294509322311008 
3.16699288215002 
3.8064490108962543 
4.181896758365997 
4.299753576887367 
-6.363449110877183 
-5.612028531269924 
-4.145612119934027 
-2.7413068682458834 
-1.3891622570868911 
-0.10024445948994944 
1.0991668575954203 
2.175245528831229 
3.093147931408052 
3.820414321342772 
4.326849462446349 
4.521170655644135 
-6.156996791827185 
-5.421968512479096 
-4.000741140677969 
-2.661937891476974 
-1.3828878859102292 
-0.15781207251894463 
1.0018727436556454 
2.0717014039715074 
3.0209910629603396 
3.818907240271778 
4.4371879868831225 
4.698068406458092 
-5.9080446635228 
-5.196613097175673 
-3.830503782870285 
-2.5604042021737907 
-1.3551656376024273 
-0.19541498517804604 
0.9206001807776272 
1.9771727457591592 
2.9473827733664315 
3.8014153463064666 
4.512325579928284 
4.828921948600229 
-5.597238841823922 
-4.916354990411841 
-3.6174409173317046 
-2.4258942989126515 
-1.3040213720379894 
-0.21914658137551893 
0.8443562954311822 
1.8798708681481417 
2.863058014208769 
3.7626286579163555 
4.55014965717422 
4.91275720233606 
-5.208523676324556 
-4.561935798147195 
-3.3394606031832303 
-2.2399266955363526 
-1.2192795841562105 
-0.22953353010746363 
0.7625926569024521 
1.7633862959440776 
2.7514601542375523 
3.690283335283728 
4.544535640938845 
4.946625638280668 
-4.730997662262764 
-4.115034952661677 
-2.9689972504304403 
-1.975105615648797 
-1.0801258464323757 
-0.21729472839492414 
0.6693340162447978 
1.6075265861951666 
2.586158329834114 
3.5611783070940937 
4.481177232663054 
4.921556108327812 
-4.158895442799488 
-3.5569355926778052 
-2.471643039838733 
-1.5955928132045656 
-0.8550087813056628 
-0.15920812568892917 
0.5722214237905983 
1.3954050464916388 
2.327924329182928 
3.332027674219429 
4.329046193510187 
4.814792429599612 
-3.4791508399510733 
-2.8575660624574937 
-1.8027567954890467 
-1.0645233166318486 
-0.512420226808946 
-0.022678628089880484 
0.5010137490288424 
1.1361730988597392 
1.93956139350633 
2.9260077780686196 
4.017109194244468 
4.57103804951395 
-2.5921661545922836 
-1.9214164347858669 
-0.9148194341058666 
-0.3854785438584458 
-0.05581919291602458 
0.2093216267596737 
0.4981595566606539 
0.8856841056462157 
1.447813867851965 
2.2625415436009755 
3.38865070255299 
4.034500250770048 
-0.8634193265105423 
-0.47614220420201725 
0.07859175993363138 
0.31833273608849627 
0.42946257820134087 
0.5028495886122066 
0.5887228946705396 
0.7324246278799027 
0.9917704114734995 
1.4475690087791275 
2.2228069768569796 
2.709222401446008 
0.3479322741128872 
0.4230397392545578 
0.567768138821131 
0.6507961975111334 
0.6621382695325971 
0.6565340958027606 
0.6582664417455085 
0.6920540700940951 
0.7972355620736806 
1.0366993262549589 
1.477032381242 
1.7545670031077105 
</DataArray>
<DataArray type="Float64" Name="Nodal_sigma_yy" NumberOfComponents="1" format="ascii" >
-1.2327542361310475 
-1.0968632275296741 
-0.7871093613821609 
-0.4522712699970289 
-0.15717882442205566 
0.08694955921523724 
0.28182808751349 
0.42652059315943974 
0.5227650491530423 
0.576826597787355 
0.6147899180709008 
0.6351109964647274 
-0.9175839566641989 
-0.9405929244603648 
-0.8494231671102398 
-0.5909143020632357 
-0.31092115917237356 
-0.053372923753589666 
0.17428734912620997 
0.3696751131505539 
0.5349764532538605 
0.6781718878886537 
0.8326011767989441 
0.9195236476045687 
-0.5295440648361341 
-0.6723582737303697 
-0.8277405010222642 
-0.7475820599804108 
-0.5281937629830408 
-0.26451107079733593 
0.012051968412491287 
0.29167930567801875 
0.5741185145361378 
0.866631131372213 
1.1951900509482172 
1.373590409862718 
-0.4186121434155734 
-0.49583750541403193 
-0.6532145512927995 
-0.7049645973045235 
-0.5769511965074282 
-0.34071368269354685 
-0.045825655034829764 
0.2863248433574469 
0.6486870771155536 
1.0422459669902078 
1.4715967332362778 
1.6958626217468693 
-0.3634926701847647 
-0.39589778444136503 
-0.4918976161709725 
-0.5608456426011501 
-0.4951422922954223 
-0.29734035293277816 
-0.005461841775421812 
0.35397179982470645 
0.7677939275857986 
1.2305898881333017 
1.73779581361054 
2.00172749575885 
-0.3373606941477723 
-0.339470959909886 
-0.36854960856178903 
-0.3956270753833571 
-0.33782600389227696 
-0.16309499790438992 
0.1190685823459022 
0.4894683635486845 
0.9340186874146347 
1.4443132199176751 
2.013278553314487 
2.3114426265566896 
-0.3217557825722134 
-0.3032380856419852 
-0.27488789335966374 
-0.24063635322500887 
-0.1522042714600558 
0.02648557645861431 
0.30590224318184056 
0.6808614383388691 
1.1426091277412953 
1.6839969508233237 
2.2991343417114365 
2.6244122595498665 
-0.308800810504861 
-0.2743440015213108 
-0.1983772724829267 
-0.10209068574773814 
0.03522864745027561 
0.24002309948056327 
0.5297475960795917 
0.9106734033150301 
1.3823892623820981 
1.9423555922035534 
2.588063334724505 
2.93206751034203 
-0.294900925786473 
-0.24621224534695557 
-0.1293946767727398 
0.023163400303445297 
0.2138433900643435 
0.45676992894003476 
0.7679577443126505 
1.1594706571012052 
1.6382285684149065 
2.2074976894888123 
2.869094701155351 
3.2231796675894677 
-0.2782849916393678 
-0.21553132936914512 
-0.06177863774353348 
0.14036989208839037 
0.3819157259778798 
0.6662938898478115 
1.0045797454726855 
1.4100955143797216 
1.8944359508335327 
2.4659445850502166 
3.1304974057067496 
3.4866702848612707 
-0.2580225189456809 
-0.1807458866871198 
0.007929089702231329 
0.25413277145630675 
0.5417234800448956 
0.8656328801446616 
1.2312215012779606 
1.6506797856873892 
2.138072357946145 
2.7055019704328096 
3.3619833705307016 
3.7134340379900914 
-0.23376993518620703 
-0.14149471939817282 
0.08106819519098318 
0.367529480591655 
0.6967640305967928 
1.0564224212297861 
1.4460489169952502 
1.875780417276055 
2.361197105187984 
2.9175063231540648 
3.556235251893647 
3.8973692188363303 
-0.20580030456009576 
-0.098490362536244 
0.1571903876980727 
0.4819566268008194 
0.8503777874462419 
1.2427877928599336 
1.6522415576371916 
2.0861600038998205 
2.561736437005952 
3.0979505345815035 
3.709413488006979 
4.035389819817112 
-0.17519271933514213 
-0.05334557196321047 
0.23485943298676062 
0.5980259220605857 
1.0058106962090623 
1.4302602837818135 
1.8566144887785578 
2.28807371171256 
2.743363135143682 
3.247422359496056 
3.8204430676365924 
4.126115511998559 
-0.14296161706312713 
-0.007303174429736631 
0.31459444556339455 
0.7198978661240496 
1.1698938430215546 
1.6273451595173434 
2.069050480345287 
2.492261165235244 
2.9153284630692116 
3.3703338930264266 
3.8889482013987378 
4.16759943078659 
-0.11182658160444682 
0.04238207276232321 
0.40921820781183527 
0.8686411944145489 
1.3670979476202183 
1.8560362594333986 
2.3072710926715962 
2.713459802162159 
3.0900064953508504 
3.4748464426482664 
3.9126888812559075 
4.150007124974975 
-0.0624799932568191 
0.12018671041419933 
0.5706781979147177 
1.1240887243568505 
1.6783733579953308 
2.183913264779333 
2.6205592541880014 
2.9840781533804646 
3.2851771244806853 
3.5602223394622463 
3.881530948051303 
4.0651793872170705 
-0.01987075347104618 
0.32710199662729134 
1.0458922377081745 
1.7411081880659525 
2.325378209586089 
2.7890980289295757 
3.144173060552606 
3.4031920393022874 
3.5745873303027262 
3.669799561280297 
3.7326545516175207 
3.7649003976523785 
1.0566356602148186 
1.6548470774614312 
2.6642000183165586 
3.3442532033536074 
3.7791677264378443 
4.037175028803732 
4.166737553721507 
4.199467348510748 
4.152403706531798 
4.026547056238308 
3.802262873659853 
3.661599988814285 
2.1252065018252044 
2.82697860788705 
3.914843869343578 
4.500429769735433 
4.78550589638485 
4.881561218059472 
4.850418656141368 
4.730293492063376 
4.546378509807057 
4.310157627647261 
3.9893795838478803 
3.799418102089488 
</DataArray>
<DataArray type="Float64" Name="Nodal_sigma_xy" NumberOfComponents="1" format="ascii" >
-0.2795016512639798 
-0.06559699819649481 
0.3078042645505613 
0.6417638539651265 
0.9796299488996039 
1.2877183637538145 
1.5468097328766959 
1.7320051270445307 
1.8129688610145123 
1.750270994577924 
1.4765917736717413 
1.2757848284724482 
-0.54752033584815 
-0.14456689626824543 
0.40544914073428406 
0.7103798076426711 
1.0215272197784375 
1.313329959668777 
1.564756142656682 
1.752286054123179 
1.847813308075257 
1.8162602124582294 
1.6148357646681828 
1.4658645407283148 
-0.9429656055844915 
-0.34518199410969636 
0.46229064646441814 
0.8178737040221715 
1.1043017780650675 
1.3753926480953036 
1.6185135274477505 
1.8152805466375175 
1.9428497070636044 
1.9741944903323019 
1.8912282627745705 
1.820283448091135 
-1.1309873165233097 
-0.5637598498164451 
0.3277232946255674 
0.8355310760415835 
1.166510871659139 
1.4470572704532734 
1.6984537142095266 
1.914029504638909 
2.0783663330055306 
2.170949163204622 
2.1723374810104 
2.1481817434531334 
-1.2184379383055524 
-0.7266371488161452 
0.1388610312712737 
0.7576015236847118 
1.1798620089559855 
1.5057874760678063 
1.7858788674400974 
2.0312200888275744 
2.236358885797273 
2.3870139682862113 
2.4628931250670876 
2.4792980826575652 
-1.2549152017451983 
-0.8327361190363961 
-0.03186504553034243 
0.636383669195166 
1.143522856188823 
1.5368831619397034 
1.8648241202158906 
2.1516877395700185 
2.402674960668879 
2.610861562826848 
2.7593500569902414 
2.815938666331104 
-1.2638665325461078 
-0.8929858829110126 
-0.1580144915015401 
0.5174722994739143 
1.0809382154978346 
1.5402675964849588 
1.9259898440717804 
2.263659885061169 
2.5657103336690223 
2.8324887044800784 
3.0533691639295726 
3.1503143936090154 
-1.254698992457632 
-0.9170211973005761 
-0.2342434860341601 
0.4277325797723465 
1.0189590874571341 
1.528312024159702 
1.9690901673736252 
2.3604831554914756 
2.7165040647578973 
3.042519779870309 
3.3345460629985633 
3.4709601166619724 
-1.23035132141813 
-0.9109722764105449 
-0.26281192873999104 
0.3795362706006884 
0.978024447913431 
1.5174462270254723 
2.001232340707412 
2.4413448533948223 
2.8495502443715246 
3.232971072817939 
3.592479781168345 
3.76594615456656 
-1.1909149822630651 
-0.8781833095651649 
-0.24772866544485356 
0.37693996325770085 
0.970705226219864 
1.5222546698242931 
2.032744647298629 
2.5100846127627774 
2.9631001098477023 
3.3982132211213965 
3.8183965544482126 
4.024902447674037 
-1.135344398541143 
-0.8202947116822781 
-0.1926975404255442 
0.4201843059817238 
1.0037166087136735 
1.5534525901990013 
2.073733251315291 
2.572847087724752 
3.0584061750806577 
3.535321942599345 
4.006177937624658 
4.240306036431241 
-1.0624402501856824 
-0.738210622921909 
-0.10068458717361349 
0.5083603291613598 
1.0806822145833324 
1.6185534099965284 
2.132695375580051 
2.636092870015646 
3.1383034614860525 
3.6435501368967573 
4.152507583583982 
4.407875599637165 
-0.9716824149387226 
-0.6329837098959412 
0.025874464392693933 
0.6407981447447233 
1.204572053565959 
1.7239072513240945 
2.217162293791615 
2.7059255339460084 
3.2059451160851777 
3.7231411409783965 
4.255982623276381 
4.525813965090368 
-0.8640893980838124 
-0.5065509036597446 
0.1848117996233113 
0.8176749113752226 
1.3792959201664043 
1.876985179277324 
2.3358937010270955 
2.789147232961629 
3.2643978003852747 
3.773917139740691 
4.315217127913124 
4.592796180756363 
-0.7427305464849807 
-0.3616645150756706 
0.37502704213078664 
1.0406519758555273 
1.6099223063294938 
2.087030179383092 
2.5010771020527667 
2.896362428480562 
3.3179531305878096 
3.7940215695194555 
4.326027473762425 
4.604480286915649 
-0.6117198068126359 
-0.19850407924971428 
0.6016767048920277 
1.3158426353838695 
1.901765662296441 
2.3609382575110853 
2.724820746628532 
3.0435095471844646 
3.3774615299464914 
3.780789599630939 
4.276839062177874 
4.548255684148808 
-0.46705290707917263 
-0.0009528230263918247 
0.8953656725341066 
1.6659610748311555 
2.258805892763147 
2.6917267792551614 
3.0015706751708153 
3.2360228408747247 
3.4569743269270816 
3.740366268346401 
4.148636373905671 
4.389404694960369 
-0.2664527237418802 
0.33454050212695413 
1.379988266107158 
2.1383038797664655 
2.669674413894486 
3.033944466211119 
3.27478191594562 
3.427134873518531 
3.531952619446071 
3.655694029943228 
3.9143568075974757 
4.095819819107146 
0.7471282461269078 
1.3033077390501315 
2.178961419432916 
2.6962949458286314 
3.024459574681836 
3.24213531965015 
3.3841794272142014 
3.464358484713157 
3.488251447136873 
3.4643472195483604 
3.424278601958208 
3.406501769394115 
1.6373695265159667 
2.0476573074308897 
2.6632620520700425 
2.9802146408188506 
3.163548777384337 
3.2854937006402842 
3.369363329428852 
3.4171374458318446 
3.4158192192142467 
3.3324940570088586 
3.0819654578294635 
2.8992928949083954 
</DataArray>
</PointData>
<CellData>
</CellData>
<Points>
<DataArray type="Float64" Name="Points" NumberOfComponents="3" format="ascii">
0.0 50.0 0.0
0.0 45.4545441 0.0
0.0 40.9090919 0.0
0.0 36.363636 0.0
0.0 31.818182 0.0
0.0 27.272728 0.0
0.0 22.727272 0.0
0.0 18.181818 0.0
0.0 13.636364 0.0
0.0 9.090909 0.0
0.0 4.5454545 0.0
0.0 0.0 0.0
2.52631569 50.5263176 0.0
2.52631569 46.1435394 0.0
2.52631569 41.7607651 0.0
2.52631569 37.3779907 0.0
2.52631569 32.9952164 0.0
2.52631569 28.6124401 0.0
2.52631569 24.2296658 0.0
2.52631569 19.8468895 0.0
2.52631569 15.4641151 0.0
2.52631569 11.0813398 0.0
2.52631569 6.69856453 0.0
2.52631569 2.31578946 0.0
5.05263138 51.0526314 0.0
5.05263138 46.8325348 0.0
5.05263138 42.612442 0.0
5.05263138 38.3923454 0.0
5.05263138 34.1722488 0.0
5.05263138 29.9521523 0.0
5.05263138 25.7320576 0.0
5.05263138 21.511961 0.0
5.05263138 17.2918663 0.0
5.05263138 13.0717707 0.0
5.05263138 8.85167503 0.0
5.05263138 4.63157892 0.0
7.57894754 51.578949 0.0
7.57894754 47.5215302 0.0
7.57894754 43.4641151 0.0
7.57894754 39.4067001 0.0
7.57894754 35.3492813 0.0
7.57894754 31.2918663 0.0
7.57894754 27.2344494 0.0
7.57894754 23.1770344 0.0
7.57894754 19.1196175 0.0
7.57894754 15.0622005 0.0
7.57894754 11.0047846 0.0
7.57894754 6.94736862 0.0
10.1052628 52.1052628 0.0
10.1052628 48.2105255 0.0
10.1052628 44.3157883 0.0
10.1052628 40.421051 0.0
10.1052628 36.5263176 0.0
10.1052628 32.6315804 0.0
10.1052628 28.7368412 0.0
10.1052628 24.8421059 0.0
10.1052628 20.9473686 0.0
10.1052628 17.0526314 0.0
10.1052628 13.1578951 0.0
10.1052628 9.26315784 0.0
12.6315794 52.6315804 0.0
12.6315794 48.8995209 0.0
12.6315794 45.1674652 0.0
12.6315794 41.4354057 0.0
12.6315794 37.7033501 0.0
12.6315794 33.9712906 0.0
12.6315794 30.2392349 0.0
12.6315794 26.5071774 0.0
12.6315794 22.7751198 0.0
12.6315794 19.0430622 0.0
12.6315794 15.3110046 0.0
12.6315794 11.5789471 0.0
15.1578951 53.1578941 0.0
15.1578951 49.5885162 0.0
15.1578951 46.0191383 0.0
15.1578951 42.4497604 0.0
15.1578951 38.8803825 0.0
15.1578951 35.3110046 0.0
15.1578951 31.7416267 0.0
15.1578951 28.1722488 0.0
15.1578951 24.6028709 0.0
15.1578951 21.033493 0.0
15.1578951 17.4641151 0.0
15.1578951 13.8947372 0.0
17.6842098 53.6842117 0.0
17.6842098 50.2775116 0.0
17.6842098 46.8708153 0.0
17.6842098 43.4641151 0.0
17.6842098 40.057415 0.0
17.6842098 36.6507187 0.0
17.6842098 33.2440186 0.0
17.6842098 29.8373203 0.0
17.6842098 26.4306221 0.0
17.6842098 23.0239239 0.0
17.6842098 19.6172256 0.0
17.6842098 16.2105255 0.0
20.2105255 54.2105255 0.0
20.2105255 50.966507 0.0
20.2105255 47.7224884 0.0
20.2105255 44.4784698 0.0
20.2105255 41.2344513 0.0
20.2105255 37.9904289 0.0
20.2105255 34.7464104 0.0
20.2105255 31.5023918 0.0
20.2105255 28.2583733 0.0
20.2105255 25.0143547 0.0
20.2105255 21.7703342 0.0
20.2105255 18.5263157 0.0
22.7368412 54.7368431 0.0
22.7368412 51.6555023 0.0
22.7368412 48.5741615 0.0
22.7368412 45.4928246 0.0
22.7368412 42.4114838 0.0
22.7368412 39.330143 0.0
22.7368412 36.2488022 0.0
22.7368412 33.1674652 0.0
22.7368412 30.0861244 0.0
22.7368412 27.0047855 0.0
22.7368412 23.9234447 0.0
22.7368412 20.8421059 0.0
25.2631588 55.2631569 0.0
25.2631588 52.3444977 0.0
25.2631588 49.4258385 0.0
25.2631588 46.5071754 0.0
25.2631588 43.5885162 0.0
25.2631588 40.669857 0.0
25.2631588 37.7511978 0.0
25.2631588 34.8325348 0.0
25.2631588 31.9138756 0.0
25.2631588 28.9952145 0.0
25.2631588 26.0765553 0.0
25.2631588 23.1578941 0.0
27.7894745 55.7894745 0.0
27.7894745 53.033493 0.0
27.7894745 50.2775116 0.0
27.7894745 47.5215302 0.0
27.7894745 44.7655487 0.0
27.7894745 42.0095711 0.0
27.7894745 39.2535896 0.0
27.7894745 36.4976082 0.0
27.7894745 33.7416267 0.0
27.7894745 30.9856453 0.0
27.7894745 28.2296658 0.0
27.7894745 25.4736843 0.0
30.3157902 56.3157883 0.0
30.3157902 53.7224884 0.0
30.3157902 51.1291847 0.0
30.3157902 48.5358849 0.0
30.3157902 45.942585 0.0
30.3157902 43.3492813 0.0
30.3157902 40.7559814 0.0
30.3157902 38.1626778 0.0
30.3157902 35.5693779 0.0
30.3157902 32.976078 0.0
30.3157902 30.3827744 0.0
30.3157902 27.7894745 0.0
32.8421059 56.8421059 0.0
32.8421059 54.4114838 0.0
32.8421059 51.9808617 0.0
32.8421059 49.5502396 0.0
32.8421059 47.1196175 0.0
32.8421059 44.6889954 0.0
32.8421059 42.2583733 0.0
32.8421059 39.8277512 0.0
32.8421059 37.3971291 0.0
32.8421059 34.966507 0.0
32.8421059 32.5358849 0.0
32.8421059 30.1052628 0.0
35.3684196 57.3684196 0.0
35.3684196 55.1004791 0.0
35.3684196 52.8325348 0.0
35.3684196 50.5645943 0.0
35.3684196 48.2966499 0.0
35.3684196 46.0287094 0.0
35.3684196 43.7607651 0.0
35.3684196 41.4928246 0.0
35.3684196 39.2248802 0.0
35.3684196 36.9569397 0.0
35.3684196 34.6889954 0.0
35.3684196 32.421051 0.0
37.8947372 57.8947372 0.0
37.8947372 55.7894745 0.0
37.8947372 53.6842117 0.0
37.8947372 51.578949 0.0
37.8947372 49.4736824 0.0
37.8947372 47.3684196 0.0
37.8947372 45.2631569 0.0
37.8947372 43.1578941 0.0
37.8947372 41.0526314 0.0
37.8947372 38.9473686 0.0
37.8947372 36.8421059 0.0
37.8947372 34.7368431 0.0
40.421051 58.421051 0.0
40.421051 56.4784698 0.0
40.421051 54.5358849 0.0
40.421051 52.5932999 0.0
40.421051 50.6507187 0.0