<?xml version="1.0"?>
<VTKFile type="UnstructuredGrid" version="0.1" byte_order="LittleEndian" compressor="vtkZLibDataCompressor">
<UnstructuredGrid>
<Piece NumberOfPoints="240" NumberOfCells="209">
<PointData>
<DataArray type="Float64" Name="displacement" NumberOfComponents="3" format="ascii" >
0.0 0.0  0.
0.0 0.0  0.
0.0 0.0  0.
0.0 0.0  0.
0.0 0.0  0.
0.0 0.0  0.
0.0 0.0  0.
0.0 0.0  0.
0.0 0.0  0.
0.0 0.0  0.
0.0 0.0  0.
0.0 0.0  0.
-0.7252453677650336 0.07089628463487867  0.
-0.32953729186178377 0.030039837472679087  0.
-0.19246536420833144 0.05667306852118272  0.
-0.09190038632229608 0.09064850323936186  0.
-0.014978297164261179 0.12231790117775554  0.
0.04479043790813849 0.1500005064539084  0.
0.08887579335654357 0.1719544670483229  0.
0.11746619528555055 0.18650953329904613  0.
0.13017865169085616 0.1915710621648104  0.
0.12657705483091916 0.18424051806014216  0.
0.10654004159019836 0.16016814646124736  0.
0.06456635796659872 0.10609910161509561  0.
-1.3129299688158516 0.220603141300357  0.
-0.7367522513793427 0.20274701371264117  0.
-0.422458430645884 0.2054815519996253  0.
-0.21761343306274963 0.24454149694531724  0.
-0.060055595462677636 0.290370156796895  0.
0.0629622484393101 0.3329309490901813  0.
0.15610290631666615 0.3672254581669241  0.
0.22019693380600427 0.3894050797105958  0.
0.2546053607529691 0.3956971762367442  0.
0.2581751696336424 0.38167857281215634  0.
0.22972894699459495 0.34143311138158183  0.
0.16616037182472007 0.26633593958505614  0.
-1.8355798876821297 0.43683263192495014  0.
-1.1643630300318668 0.43763273304372363  0.
-0.7055307127023726 0.43960719738843973  0.
-0.3851721993183473 0.4681638541219472  0.
-0.1424803635238002 0.5133042840423941  0.
0.04829599986197789 0.5593262739502631  0.
0.195605649554285 0.5972291780613991  0.
0.3019040621998827 0.6208036339040091  0.
0.3667479842848396 0.6247396414163126  0.
0.38843162076092985 0.6036715341577407  0.
0.36493318553285137 0.5516151446285267  0.
0.2942055695793029 0.4620517572394579  0.
-2.3277371251533663 0.7036326601978555  0.
-1.595237143022208 0.7226795448321407  0.
-1.0287804616264413 0.7342866152198723  0.
-0.6002938453178036 0.7581824767010383  0.
-0.26848292594056583 0.7958713428216273  0.
-0.005717123571346495 0.8372497520361403  0.
0.20085449244974807 0.8718063418135144  0.
0.35574009075163215 0.8915572723019156  0.
0.4592859375957624 0.8899314193260678  0.
0.5096560494927181 0.8608719709284622  0.
0.504156790852211 0.7983667080908817  0.
0.440379490639092 0.6965882901752447  0.
-2.8070331026600184 1.0179566788976626  0.
-2.027807471040932 1.0543333604481042  0.
-1.3811464119455497 1.0798058792842578  0.
-0.8601237671911296 1.106085062987266  0.
-0.44197002628696397 1.138071760757365  0.
-0.1047718179346496 1.171638063179841  0.
0.16526408746184337 1.198645628398057  0.
0.3744532129643953 1.2109431296425817  0.
0.5241974957020159 1.201352494391845  0.
0.6129622921496511 1.163376786864156  0.
0.6376660377276536 1.0908901209392592  0.
0.5949978570085266 0.9781502670490003  0.
-3.283666514083422 1.3797797052237866  0.
-2.465327582273413 1.4329727219926902  0.
-1.7569747889501128 1.4735045480905382  0.
-1.159830313294236 1.506938639738451  0.
-0.6632686335070018 1.537520920396155  0.
-0.25291560626159665 1.564512594759948  0.
0.08286266979507083 1.5830020299375476  0.
0.35076177446488793 1.5863250095901165  0.
0.5530220324017272 1.5676518745594807  0.
0.6886286607175945 1.5204842647877046  0.
0.7544563301806911 1.4386733956443343  0.
0.746401294851894 1.3164228550887582  0.
-3.7642068793466392 1.790552884132155  0.
-2.9119276683652227 1.860402820399141  0.
-2.1546538987704653 1.916116713921008  0.
-1.495723709997189 1.959332975014171  0.
-0.9309945277113508 1.9925609248987177  0.
-0.452227407317954 2.0162568451584617  0.
-0.051178563742224334 2.027950605229421  0.
0.27784446640555976 2.023003664166224  0.
0.5372536917179985 1.9957368664313944  0.
0.7264807201593068 1.94019185868064  0.
0.8426196678578111 1.8504698513454112  0.
0.8811855407418845 1.7208473056919344  0.
-4.2531829572358335 2.2525705043799156  0.
-3.3714921245753313 2.3391508877273472  0.
-2.5748143725722903 2.409866651127102  0.
-1.8660103536861514 2.4641731914062155  0.
-1.2436988972013652 2.50305067509994  0.
-0.7035386080046053 2.5270588806576164  0.
-0.24040731339494406 2.53513378504091  0.
0.149719509102537 2.5243967583691234  0.
0.46876461837730254 2.490607214508746  0.
0.7163119530581593 2.428759689673673  0.
0.8897717904817094 2.333533921175978  0.
0.984717120449406 2.199534631347807  0.
-4.75379343156735 2.7686903578871367  0.
-3.84738333471758 2.8721500156703708  0.
-3.0191606520035936 2.957632131136367  0.
-2.27051260081125 3.023620136197593  0.
-1.6006944873384523 3.0701457122700733  0.
-1.0073196159912112 3.0975773053852422  0.
-0.4874369225554833 3.1055673699136905  0.
-0.038651387330420825 3.092494405713641  0.
0.3401190476316064 3.055437044201623  0.
0.6482930269813311 2.990483940878808  0.
0.883539094097629 2.893125295455819  0.
1.0417942664997455 2.7585481065299913  0.
-5.268240006755712 3.3421457485942074  0.
-4.342382116647555 3.4625530231084505  0.
-3.4897861916149333 3.5625455021557  0.
-2.7101365792340792 3.640417144884892  0.
-2.002240152694673 3.6958173147174618  0.
-1.364287829733591 3.7290267359802383  0.
-0.7944636311543224 3.740128630109895  0.
-0.2915496799131745 3.7283658406705014  0.
0.1446782484771709 3.6918660700728476  0.
0.5132747791571319 3.6277278407293343  0.
0.8120296865321901 3.5323088678835415  0.
1.0373626351310532 3.401524718474648  0.
-5.797933892073759 3.9763826145572465  0.
-4.858663553268291 4.113587737746896  0.
-3.988750056010412 4.227776763431475  0.
-3.1863564509388267 4.317492792308564  0.
-2.4493587168855417 4.382421849163921  0.
-1.7756568549080045 4.42299226902202  0.
-1.1636890759288834 4.439713435331579  0.
-0.6128323651972172 4.432516497998208  0.
-0.12350845768383638 4.400352740483816  0.
0.3029079570044526 4.341148933651052  0.
0.6641795254927897 4.252032970046552  0.
0.9571576490835353 4.129639264930092  0.
-6.34366388095931 4.674917997385673  0.
-5.397785300882831 4.828454810460335  0.
-4.517790696772012 4.956420364357658  0.
-3.7007462664001984 5.057751816621224  0.
-2.943480410318995 5.13240915900096  0.
-2.24307344901267 5.181198314966086  0.
-1.5975308589081376 5.2051986856200365  0.
-1.0062325705696122 5.2050572135444435  0.
-0.4699383796288194 5.180460991709873  0.
0.009574696450856955 5.130004426995075  0.
0.429897297227777 5.051402148643122  0.
0.7881372255574102 4.941856040926452  0.
-6.905862123887991 5.441234681289215  0.
-5.960719399126416 5.610297240790554  0.
-5.078109483332461 5.7514850486369005  0.
-4.2545688195541205 5.864002422971408  0.
-3.4859764251199685 5.9481659671051945  0.
-2.7683049436450418 6.005327445185381  0.
-2.0985586966073018 6.037329221437436  0.
-1.4755185987732657 6.0457148785618  0.
-0.8999007318707317 6.031002462509927  0.
-0.373813542995131 5.992386070610495  0.
0.09999046123322873 5.927984365842249  0.
0.5186136675090902 5.835306168708215  0.
-7.485060015657922 6.278800718191967  0.
-6.548030374142253 6.462379814889641  0.
-5.6702836513176065 6.616076634328414  0.
-4.848449666305506 6.739062375171618  0.
-4.077654893965845 6.831992116874751  0.
-3.3526690327603696 6.896917731145452  0.
-2.6690846717510195 6.93661525369018  0.
-2.024379623612887 6.953758750998702  0.
-1.418601313982253 6.949996625567196  0.
-0.8540697302178307 6.925283046222371  0.
-0.33407240527944915 6.877961564986609  0.
0.1380910518026762 6.805579501646737  0.
-8.082838935862322 7.191573320920311  0.
-7.160376512054497 7.3886963388778115  0.
-6.294504841322607 7.554060553291361  0.
-5.482326016490597 7.6861690780428225  0.
-4.718370978597413 7.7862500404515735  0.
-3.996300093804498 7.8572832955992675  0.
-3.3102084518298276 7.903179462722566  0.
-2.655712962416894 7.927877566610479  0.
-2.031021643583883 7.9344993363558265  0.
-1.4378602145053812 7.924253188450109  0.
-0.8804971102644544 7.89597169206586  0.
-0.3631063656939958 7.8466338493135845  0.
-8.703395649767709 8.185094307403617  0.
-7.799736466946093 8.396079172114797  0.
-6.95149356353639 8.571524413782749  0.
-6.156082884262587 8.710088262959909  0.
-5.4072382953790425 8.813779109551716  0.
-4.697678293879644 8.887390175056625  0.
-4.0204484698643155 8.936275112837224  0.
-3.3694875718134565 8.965645103713292  0.
-2.7403856127723527 8.98011851751199  0.
-2.131714741803868 8.98294235377302  0.
-1.5473327834182165 8.973845642068483  0.
-0.9943148083874098 8.950106129175413  0.
-9.357750784747646 9.272629409863619  0.
-8.471729429816444 9.497742725375144  0.
-7.64496194862443 9.681425249894861  0.
-6.871968238736181 9.819035198785112  0.
-6.144232070903216 9.918562692583235  0.
-5.454327988874619 9.987712390741974  0.
-4.795168578744126 10.033488902244228  0.
-4.159997497274073 10.06212710146434  0.
-3.5426264624371306 10.079321434759748  0.
-2.9379420180638043 10.090429238126406  0.
-2.3431519225265944 10.09989379615655  0.
-1.7647642358657218 10.101749424184943  0.
-10.068984252208239 10.481386715867338  0.
-9.192395287379027 10.73673206336338  0.
-8.389868286113732 10.906861107855146  0.
-7.639449160676435 11.025061321512377  0.
-6.93348630246913 11.105068733837998  0.
-6.265204715460528 11.157348715209112  0.
-5.6282560636129375 11.18981882657103  0.
-5.0162331472983706 11.208822446313517  0.
-4.422550850771093 11.219876446840493  0.
-3.840634501540461 11.228497859018935  0.
-3.2641173322463377 11.242179878096913  0.
-2.6845795736221016 11.279776777032813  0.
-10.849829354200413 11.986328519657647  0.
-10.01005307413605 12.153890252180444  0.
-9.215622028816739 12.265843898580432  0.
-8.476367196040428 12.333142027494713  0.
-7.784217948017873 12.371257834413697  0.
-7.132388091516554 12.38968710811469  0.
-6.514862470706587 12.395167344598011  0.
-5.92595433733038 12.392921323687343  0.
-5.359784761499236 12.387199475100891  0.
-4.809789801990168 12.381301156957024  0.
-4.268562826459521 12.376595249178797  0.
-3.7291403211009935 12.367443335220054  0.
</DataArray>
<DataArray type="Float64" Name="Nodal_sigma_xx" NumberOfComponents="1" format="ascii" >
-19.96469785324367 
-15.300114588098227 
-8.193542679132392 
-3.826352450777509 
-0.3620858183925386 
2.3690530636784244 
4.393056833941986 
5.671008674474693 
6.153148022862526 
5.806176071757893 
4.537219835811905 
3.651352994868753 
-18.537501474695656 
-14.816090305008007 
-8.536073423388123 
-4.050439831678125 
-0.5746425162854697 
2.180106818437707 
4.242712909396755 
5.581817399955711 
6.147183678102683 
5.897840124317069 
4.772727884796051 
3.979847178499431 
-16.15414342502035 
-13.81903274273049 
-8.99234823173303 
-4.54988337394643 
-1.0318837260018632 
1.7724286231348603 
3.91748792292731 
5.3832113263249575 
6.122083324343439 
6.0847337872684095 
5.244120554800919 
4.621861023550585 
-14.524096854758643 
-12.836663655988744 
-9.041439258613254 
-5.020236623061163 
-1.5288882777223416 
1.3175378536089049 
3.546946753496524 
5.144379384961442 
6.067143766854264 
6.265169368635713 
5.708025760703806 
5.23910797836705 
-13.359581262212275 
-11.967999884834981 
-8.819600648446176 
-5.3019994323206285 
-1.9894221755610464 
0.849252186887476 
3.1455471470793506 
4.869006719145522 
5.976796026290351 
6.417787796802078 
6.149771112307359 
5.834506889768466 
-12.496021943549994 
-11.235640164670116 
-8.469531718850533 
-5.387563645031809 
-2.3371108364227364 
0.41634444165284273 
2.740019503527266 
4.568724480715662 
5.8507049878641775 
6.5312652421668425 
6.557155533280366 
6.400192285580243 
-11.822303436494334 
-10.619794690819248 
-8.076405754864181 
-5.326268209089376 
-2.547679979027385 
0.0631689661314006 
2.3636193600878035 
4.263251197975927 
5.696283151518388 
6.6021566562923 
6.919664775791601 
6.923631829536115 
-11.259500601297301 
-10.085390724437005 
-7.6781427322701745 
-5.169896736402643 
-2.633635811910711 
-0.1893720502490751 
2.045279686673768 
3.975789985157604 
5.527249303156866 
6.633624744212927 
7.229413818699691 
7.391317490837965 
-10.7480061734678 
-9.594559186637415 
-7.283188330239889 
-4.954498028372356 
-2.6211797718866245 
-0.34260358592410556 
1.8004100667023824 
3.7259124698575943 
5.359428494941009 
6.633360955651272 
7.4819796405586 
7.791668777533179 
-10.23953957849129 
-9.11036146284703 
-6.883296115410671 
-4.6985392917606665 
-2.5354205634628904 
-0.4107546674588215 
1.6296050508332258 
3.52377816431932 
5.205467300885195 
6.610338772217558 
7.676309745532851 
8.11686822932341 
-9.692844722223256 
-8.597500466764656 
-6.460635535037295 
-4.4058108288212825 
-2.393707445853847 
-0.41194162109110094 
1.5224631718117778 
3.368276546352369 
5.070571031605075 
6.571056900020363 
7.813485563177254 
8.363347789791288 
-9.071938246052879 
-8.022336997798039 
-5.9911085647196884 
-4.0682802635283615 
-2.2033518942935584 
-0.3620397415606904 
1.4626803517018763 
3.2482355967624184 
4.950395698382196 
6.516260258723128 
7.894580686224879 
8.530776603341618 
-8.34617603614435 
-7.35307474838517 
-5.445451528253134 
-3.667405857786439 
-1.960558673653721 
-0.2707720323454056 
1.432412309459999 
3.144667096087019 
4.830458241593275 
6.438452424757514 
7.917896408870861 
8.619603715235172 
-7.491530886261443 
-6.560233027735381 
-4.789131294859362 
-3.1739635625264127 
-1.6487299555673764 
-0.13797453727114395 
1.4161303606076194 
3.032588153650417 
4.685373260671829 
6.319218088411685 
7.8753525221255885 
8.627188670636826 
-6.491563415848946 
-5.616563595092822 
-3.9815929285883973 
-2.5476941572112786 
-1.2365766772530702 
0.051807313563078855 
1.4071519753848625 
2.8832697432479772 
4.475967969833813 
6.123966354623898 
7.746507783238848 
8.54178151112146 
-5.333424621526134 
-4.492687464932635 
-2.9744618579039868 
-1.7398512286817074 
-0.6806722865616273 
0.333114112164409 
1.4210238645698974 
2.676683463788838 
4.146083047489208 
5.78859451942597 
7.486066475832629 
8.33094706179636 
-3.9813094064874406 
-3.1363877647739438 
-1.7068357898535107 
-0.7058805423919143 
0.056164483648286384 
0.7489907690448903 
1.504792238566829 
2.438340713620181 
3.650719548359719 
5.199504714161959 
6.987138617505993 
7.913513010644848 
-2.2446519324886802 
-1.3891496422080132 
-0.12093978140016132 
0.5365367434103465 
0.9603553516331527 
1.3158476637716308 
1.715920764597104 
2.260927299241634 
3.0610915276969113 
4.25474789221954 
6.006955448067215 
7.044294775829487 
0.8529153458282179 
1.1511500581112608 
1.6094632322961715 
1.8334229260053714 
1.92826162515626 
1.9914463468548993 
2.083724485029039 
2.2623450667370815 
2.599650964841609 
3.1966965686664257 
4.2330883097855505 
4.8911706472954 
2.9456893608592996 
2.6894662592967875 
2.4615157862606267 
2.4660814198749144 
2.408943081928557 
2.3469872099988844 
2.307635697232623 
2.3217225760658553 
2.4356803873092225 
2.707490367585463 
3.111349617359722 
3.3324428353969946 
</DataArray>
<DataArray type="Float64" Name="Nodal_sigma_yy" NumberOfComponents="1" format="ascii" >
-2.437169677851204 
-2.199788718802373 
-1.6334238459206358 
-0.9936401713583367 
-0.42060353450495813 
0.06123969324404149 
0.45526548095453434 
0.7575845062977187 
0.9682306320747938 
1.0963171406714456 
1.1929399475088673 
1.2442227822690075 
-1.8086169951309272 
-1.8960338327904764 
-1.773817088432802 
-1.281131331413903 
-0.7272705592470154 
-0.2102542791504559 
0.2519357447026406 
0.6523007963163268 
0.992972799308967 
1.2895339669193326 
1.6137099981631147 
1.7976141540972344 
-1.0244782231529057 
-1.3488630135516455 
-1.7238849192027352 
-1.595276370373624 
-1.1590984062120708 
-0.6226824210385756 
-0.06017919826640132 
0.5039132195363694 
1.0676731887475674 
1.6489793497665266 
2.3122233775144863 
2.6768483333306854 
-0.7835285688868623 
-0.9651941587372878 
-1.3363960690483963 
-1.4861578161865794 
-1.2499396774279408 
-0.7773993873337169 
-0.1825527942306569 
0.48266101145882273 
1.2010283955054417 
1.9776929619904464 
2.8341880451257664 
3.2859220085781957 
-0.6600832942884145 
-0.749400754844023 
-0.9903056543389899 
-1.1752107770660984 
-1.0785126175999105 
-0.6991026184290446 
-0.12156926754036698 
0.590926629829122 
1.4067440533869173 
2.3159427817535407 
3.3181074847954375 
3.842534180630767 
-0.6005971486813784 
-0.6289885804075517 
-0.7341877904507326 
-0.8352290057075429 
-0.7627609718977465 
-0.4447398390062145 
0.09853243565755362 
0.8216043760138766 
1.6903914809263165 
2.6865555758606465 
3.800311647851889 
4.385571401986753 
-0.5630168476829644 
-0.5515178867300079 
-0.5450901947426852 
-0.5271549986972464 
-0.4001810727926101 
-0.08663271137428985 
0.4361336685106345 
1.1543564880108135 
2.0457676186651366 
3.0932723145446293 
4.285952547787263 
4.917501875664715 
-0.5309710324185476 
-0.48957045721448605 
-0.39369286361607003 
-0.25893075913839914 
-0.04213648956059762 
0.3126687545292234 
0.8421653691324409 
1.5575920348498604 
2.4550118372890988 
3.5265348495965987 
4.766040869375875 
5.427217567577353 
-0.4973086938797674 
-0.4297215133040148 
-0.25895062006557823 
-0.020861699024379135 
0.29309208554690336 
0.7134411497876323 
1.2731444644121632 
1.995529209002881 
2.8924422085015333 
3.9682451054261385 
5.224949257516007 
5.898781594165774 
-0.45864795992085083 
-0.3654112909527054 
-0.12794667162076093 
0.19932967173115593 
0.6044538680332457 
1.0969279649928556 
1.6991592162398415 
2.4365934817533867 
3.3307255246581584 
4.396710065986734 
5.645075783238807 
6.315987694154879 
-0.4132729028912526 
-0.2935976852141115 
0.006438707122107271 
0.4116196882476042 
0.8978240269793494 
1.45868037421807 
2.1049839007819333 
2.8591449127170105 
3.747119694700628 
4.791778445207898 
6.010625554240194 
6.66545939440423 
-0.3605831981944557 
-0.21347577350584424 
0.14719787817462976 
0.6225970743313236 
1.180707122183513 
1.8024759925663565 
2.4875451852614545 
3.2533557948361387 
4.127689782203206 
5.139066438523681 
6.310452901676746 
6.938563487301335 
-0.3010279274401075 
-0.12602041542311077 
0.29429851332641366 
0.8358120937410681 
1.460077982935489 
2.136297852137832 
2.852645308621769 
3.620491445700706 
4.4688845028113295 
5.4322121919124555 
6.539242599303285 
7.131683550418561 
-0.23622756648710605 
-0.033343916208041405 
0.44664488398032703 
1.0540437389602804 
1.7431128602001722 
2.470694680997929 
3.212405650791353 
3.9714025821982895 
4.777277028329383 
5.673007825060919 
6.696642121625677 
7.244327701347965 
-0.16706807358772582 
0.06395488975581441 
0.6076656557605187 
1.2873025970059988 
2.044158351706983 
2.8220966963997465 
3.584602780203 
4.3248020111821655 
5.069289176942939 
5.870325172475588 
6.784201119158666 
7.275803360317861 
-0.09637437693655537 
0.17331279682700473 
0.8027493196265075 
1.5747476776481808 
2.4080080435705318 
3.2307844109176584 
4.001386967739403 
4.706866644775822 
5.3672910944111525 
6.040613274092361 
6.801842055550532 
7.213530976337646 
0.012569956125479141 
0.3400870840066421 
1.1216651907977087 
2.0492790769112936 
2.9682752523443625 
3.81060461021974 
4.548588939443558 
5.17562889198171 
5.70458659080077 
6.186984731181842 
6.7397861509846 
7.053205416265021 
0.1276724282586861 
0.7382474753062382 
1.9586351840707732 
3.097806119107063 
4.060792738408564 
4.8384867721769 
5.447013653374269 
5.903299170708212 
6.2170098932186475 
6.397158129919519 
6.5013604217515715 
6.54730087547047 
1.8899947583382481 
2.841580881199183 
4.46080758265816 
5.58830457330474 
6.352868065361632 
6.845952093939725 
7.133243748847836 
7.258636084790976 
7.245883958786907 
7.09127540453375 
6.741705996571408 
6.50751538725339 
3.6111966620259697 
4.654129928353378 
6.333491111342253 
7.339837458077218 
7.906469933509845 
8.179259603584644 
8.24327131364619 
8.153090505979758 
7.946216947061507 
7.640601958375707 
7.167280434531603 
6.8708172334673545 
</DataArray>
<DataArray type="Float64" Name="Nodal_sigma_xy" NumberOfComponents="1" format="ascii" >
-0.8123298640713368 
-0.30870272695140244 
0.5687394597278703 
1.3091016134918 
1.9977413860567117 
2.5917222890610265 
3.0708971380004253 
3.4021856971100926 
3.5397605364571394 
3.4152717575350415 
2.8937767720316288 
2.5103434599830967 
-1.1568362519278388 
-0.3192354138670881 
0.8411801628158746 
1.4829588416313473 
2.097349309380773 
2.649489065703701 
3.108959063497789 
3.441966587618023 
3.6052019882661046 
3.538487512882483 
3.158281872949997 
2.8777753539563045 
-1.6826579307906817 
-0.5127988816153349 
1.0750668956120975 
1.7677103825113067 
2.299091325499317 
2.789062811858154 
3.2194045110762914 
3.561527480242959 
3.779588593780794 
3.8291378913884797 
3.681143751956778 
3.5566528562887436 
-1.9442566919832212 
-0.8519411379643023 
0.8773608421524524 
1.8571413922339293 
2.4604000568349114 
2.9500869006935133 
3.3802352830004043 
3.7455259226496502 
4.023864585397122 
4.184310663223827 
4.199419330629215 
4.168056022371756 
-2.048683776377187 
-1.109912490998342 
0.5524427990440623 
1.737834966487105 
2.5146186878841323 
3.082451791832865 
3.554293835366108 
3.9628631466771944 
4.306833845489132 
4.568445313128588 
4.7206173334678345 
4.765563771870532 
-2.068797033536941 
-1.26691155705905 
0.25804559837776997 
1.5252070520425831 
2.4608860122951524 
3.1538482230025955 
3.7083285655021063 
4.184058188054535 
4.602275908354585 
4.960607189455941 
5.239217083672964 
5.355091111875003 
-2.044093111802602 
-1.3413236120377214 
0.04818597880355435 
1.3149328274648577 
2.350204236051817 
3.1646897523646764 
3.822992808928956 
4.385443426627741 
4.887855986564096 
5.342614118276838 
5.741927918427012 
5.9255277203554835 
-1.9899294269162087 
-1.3515217427781279 
-0.06871575046766396 
1.1598554241426144 
2.2379565995643693 
3.14125670662911 
3.8980960297531975 
4.553801038208627 
5.146320073357859 
5.697580313545352 
6.212024526746683 
6.45949005149753 
-1.9107182932933793 
-1.3093954137924675 
-0.09937576115162094 
1.0817613796971828 
2.163944035475034 
3.116841323611332 
3.948517958722688 
4.6880903138283605 
5.367614991250878 
6.011574916170149 
6.632841873425246 
6.938622863121957 
-1.806385082358517 
-1.2216953602535694 
-0.05345659726760499 
1.0856147962313352 
2.150687695391629 
3.119536245340159 
3.9950119674933195 
4.796712905458551 
5.549515309737563 
6.275529842314553 
6.990679642091694 
7.347094094352626 
-1.6753093264371852 
-1.0921678623356494 
0.06027888324927616 
1.1690324450040501 
2.2083868308091033 
3.1685266000061048 
4.056995100639894 
4.892388651513512 
5.6958774606191644 
6.485820269065451 
7.276686061083111 
7.673939139856978 
-1.5158791467683121 
-0.9232722021838996 
0.23467229911664841 
1.3274958622889368 
2.340696905136288 
3.2756786571829375 
4.149715329508524 
4.987921180202695 
5.813583766528589 
6.643112406939496 
7.487138668738439 
7.913862982428332 
-1.3276170315480167 
-0.7174753475553313 
0.4639082581224033 
1.5569420197026127 
2.549362446470849 
3.4493908535774334 
4.285285616460825 
5.094623178998418 
5.909911523474459 
6.750064616900684 
7.621907668694254 
8.066043351649926 
-1.1120493263520395 
-0.47794592308971756 
0.743453753245369 
1.85498670594468 
2.8370168140290453 
3.6984445985060117 
4.476222891272055 
5.223826574454214 
5.991592609850328 
6.8088109497260705 
7.681297057924387 
8.130871115207814 
-0.8725229708323237 
-0.2075010194875448 
1.072048214010312 
2.2223189471138403 
3.2075477875945344 
4.032658596098109 
4.738422391921656 
5.391519908400871 
6.066767214299558 
6.8189070924992885 
7.6615918648807515 
8.104424925332173 
-0.6109339834948024 
0.09812724257554403 
1.4606585489984611 
2.667763665124939 
3.664756467896465 
4.455691499314309 
5.083909956782817 
5.619332370945937 
6.1533418610952495 
6.778900226976102 
7.547899002761789 
7.970567681701095 
-0.31052825150044466 
0.47328855091054356 
1.9617035943629015 
3.2256665946193595 
4.209648617060624 
4.947862821423427 
5.492051884310321 
5.905055196904822 
6.270520741045196 
6.703230801023129 
7.31551439444714 
7.678142281189359 
0.12057702867863448 
1.0916078533906415 
2.7580440196903444 
3.9552736838618783 
4.8180133040257695 
5.434956905038694 
5.866661496798696 
6.158835580295401 
6.361552177119857 
6.56030142764346 
6.932927701919903 
7.193023527327626 
1.8685441272167926 
2.6723597897453057 
3.96640092776536 
4.779819375912771 
5.328085675375025 
5.713306406198001 
5.983152733782161 
6.156605204217528 
6.237861561937256 
6.22558955810569 
6.135092902233243 
6.074371061044294 
3.3494768345171027 
3.8470211811746524 
4.667573286041259 
5.188544643513483 
5.523994341388777 
5.763326600179164 
5.938849653200411 
6.054458016157637 
6.090927813963686 
5.990759845237067 
5.570654534392226 
5.245255519965813 
</DataArray>
</PointData>
<CellData>
</CellData>
<Points>
<DataArray type="Float64" Name="Points" NumberOfComponents="3" format="ascii">
0.0 50.0 0.0
0.0 45.4545441 0.0
0.0 40.9090919 0.0
0.0 36.363636 0.0
0.0 31.818182 0.0
0.0 27.272728 0.0
0.0 22.727272 0.0
0.0 18.181818 0.0
0.0 13.636364 0.0
0.0 9.090909 0.0
0.0 4.5454545 0.0
0.0 0.0 0.0
2.52631569 50.5263176 0.0
2.52631569 46.1435394 0.0
2.52631569 41.7607651 0.0
2.52631569 37.3779907 0.0
2.52631569 32.9952164 0.0
2.52631569 28.6124401 0.0
2.52631569 24.2296658 0.0
2.52631569 19.8468895 0.0
2.52631569 15.4641151 0.0
2.52631569 11.0813398 0.0
2.52631569 6.69856453 0.0
2.52631569 2.31578946 0.0
5.05263138 51.0526314 0.0
5.05263138 46.8325348 0.0
5.05263138 42.612442 0.0
5.05263138 38.3923454 0.0
5.05263138 34.1722488 0.0
5.05263138 29.9521523 0.0
5.05263138 25.7320576 0.0
5.05263138 21.511961 0.0
5.05263138 17.2918663 0.0
5.05263138 13.0717707 0.0
5.05263138 8.85167503 0.0
5.05263138 4.63157892 0.0
7.57894754 51.578949 0.0
7.57894754 47.5215302 0.0
7.57894754 43.4641151 0.0
7.57894754 39.4067001 0.0
7.57894754 35.3492813 0.0
7.57894754 31.2918663 0.0
7.57894754 27.2344494 0.0
7.57894754 23.1770344 0.0
7.57894754 19.1196175 0.0
7.57894754 15.0622005 0.0
7.57894754 11.0047846 0.0
7.57894754 6.94736862 0.0
10.1052628 52.1052628 0.0
10.1052628 48.2105255 0.0
10.1052628 44.3157883 0.0
10.1052628 40.421051 0.0
10.1052628 36.5263176 0.0
10.1052628 32.6315804 0.0
10.1052628 28.7368412 0.0
10.1052628 24.8421059 0.0
10.1052628 20.9473686 0.0
10.1052628 17.0526314 0.0
10.1052628 13.1578951 0.0
10.1052628 9.26315784 0.0
12.6315794 52.6315804 0.0
12.6315794 48.8995209 0.0
12.6315794 45.1674652 0.0
12.6315794 41.4354057 0.0
12.6315794 37.7033501 0.0
12.6315794 33.9712906 0.0
12.6315794 30.2392349 0.0
12.6315794 26.5071774 0.0
12.6315794 22.7751198 0.0
12.6315794 19.0430622 0.0
12.6315794 15.3110046 0.0
12.6315794 11.5789471 0.0
15.1578951 53.1578941 0.0
15.1578951 49.5885162 0.0
15.1578951 46.0191383 0.0
15.1578951 42.4497604 0.0
15.1578951 38.8803825 0.0
15.1578951 35.3110046 0.0
15.1578951 31.7416267 0.0
15.1578951 28.1722488 0.0
15.1578951 24.6028709 0.0
15.1578951 21.033493 0.0
15.1578951 17.4641151 0.0
15.1578951 13.8947372 0.0
17.6842098 53.6842117 0.0
17.6842098 50.2775116 0.0
17.6842098 46.8708153 0.0
17.6842098 43.4641151 0.0
17.6842098 40.057415 0.0
17.6842098 36.6507187 0.0
17.6842098 33.2440186 0.0
17.6842098 29.8373203 0.0
17.6842098 26.4306221 0.0
17.6842098 23.0239239 0.0
17.6842098 19.6172256 0.0
17.6842098 16.2105255 0.0
20.2105255 54.2105255 0.0
20.2105255 50.966507 0.0
20.2105255 47.7224884 0.0
20.2105255 44.4784698 0.0
20.2105255 41.2344513 0.0
20.2105255 37.9904289 0.0
20.2105255 34.7464104 0.0
20.2105255 31.5023918 0.0
20.2105255 28.2583733 0.0
20.2105255 25.0143547 0.0
20.2105255 21.7703342 0.0
20.2105255 18.5263157 0.0
22.7368412 54.7368431 0.0
22.7368412 51.6555023 0.0
22.7368412 48.5741615 0.0
22.7368412 45.4928246 0.0
22.7368412 42.4114838 0.0
22.7368412 39.330143 0.0
22.7368412 36.2488022 0.0
22.7368412 33.1674652 0.0
22.7368412 30.0861244 0.0
22.7368412 27.0047855 0.0
22.7368412 23.9234447 0.0
22.7368412 20.8421059 0.0
25.2631588 55.2631569 0.0
25.2631588 52.3444977 0.0
25.2631588 49.4258385 0.0
25.2631588 46.5071754 0.0
25.2631588 43.5885162 0.0
25.2631588 40.669857 0.0
25.2631588 37.7511978 0.0
25.2631588 34.8325348 0.0
25.2631588 31.9138756 0.0
25.2631588 28.9952145 0.0
25.2631588 26.0765553 0.0
25.2631588 23.1578941 0.0
27.7894745 55.7894745 0.0
27.7894745 53.033493 0.0
27.7894745 50.2775116 0.0
27.7894745 47.5215302 0.0
27.7894745 44.7655487 0.0
27.7894745 42.0095711 0.0
27.7894745 39.2535896 0.0
27.7894745 36.4976082 0.0
27.7894745 33.7416267 0.0
27.7894745 30.9856453 0.0
27.7894745 28.2296658 0.0
27.7894745 25.4736843 0.0
30.3157902 56.3157883 0.0
30.3157902 53.7224884 0.0
30.3157902 51.1291847 0.0
30.3157902 48.5358849 0.0
30.3157902 45.942585 0.0
30.3157902 43.3492813 0.0
30.3157902 40.7559814 0.0
30.3157902 38.1626778 0.0
30.3157902 35.5693779 0.0
30.3157902 32.976078 0.0
30.3157902 30.3827744 0.0
30.3157902 27.7894745 0.0
32.8421059 56.8421059 0.0
32.8421059 54.4114838 0.0
32.8421059 51.9808617 0.0
32.8421059 49.5502396 0.0
32.8421059 47.1196175 0.0
32.8421059 44.6889954 0.0
32.8421059 42.2583733 0.0
32.8421059 39.8277512 0.0
32.8421059 37.3971291 0.0
32.8421059 34.966507 0.0
32.8421059 32.5358849 0.0
32.8421059 30.1052628 0.0
35.3684196 57.3684196 0.0
35.3684196 55.1004791 0.0
35.3684196 52.8325348 0.0
35.3684196 50.5645943 0.0
35.3684196 48.2966499 0.0
35.3684196 46.0287094 0.0
35.3684196 43.7607651 0.0
35.3684196 41.4928246 0.0
35.3684196 39.2248802 0.0
35.3684196 36.9569397 0.0
35.3684196 34.6889954 0.0
35.3684196 32.421051 0.0
37.8947372 57.8947372 0.0
37.8947372 55.7894745 0.0
37.8947372 53.6842117 0.0
37.8947372 51.578949 0.0
37.8947372 49.4736824 0.0
37.8947372 47.3684196 0.0
37.8947372 45.2631569 0.0
37.8947372 43.1578941 0.0
37.8947372 41.0526314 0.0
37.8947372 38.9473686 0.0
37.8947372 36.8421059 0.0
37.8947372 34.7368431 0.0
40.421051 58.421051 0.0
40.421051 56.4784698 0.0
40.421051 54.5358849 0.0
40.421051 52.5932999 0.0
40.421051 50.6507187 0.0
40.421051 48.7081337 0.0
40.421051 46.7655487 0.0
40.421051 44.8229675 0.0
40.421051 42.8803825 0.0
40.421051 40.9377975 0.0
40.421051 38.9952164 0.0
40.421051 37.0526314 0.0
42.9473686 58.9473686 0.0
42.9473686 57.1674652 0.0
42.9473686 55.387558 0.0
42.9473686 53.6076546 0.0