<?xml version="1.0"?>
<VTKFile type="UnstructuredGrid" version="0.1" byte_order="LittleEndian" compressor="vtkZLibDataCompressor">
<UnstructuredGrid>
<Piece NumberOfPoints="240" NumberOfCells="209">
<PointData>
<DataArray type="Float64" Name="displacement" NumberOfComponents="3" format="ascii" >
0.0 0.0  0.
0.0 0.0  0.
0.0 0.0  0.
0.0 0.0  0.
0.0 0.0  0.
0.0 0.0  0.
0.0 0.0  0.
0.0 0.0  0.
0.0 0.0  0.
0.0 0.0  0.
0.0 0.0  0.
0.0 0.0  0.
-0.00022391276107408802 0.00011883683548500018  0.
-9.05747214085394e-05 2.7429492880648392e-05  0.
-4.84917847538249e-05 1.2629505834054497e-05  0.
-1.5865742610800047e-05 1.615419580254573e-05  0.
8.275902287637637e-06 2.687501233682123e-05  0.
2.6059164313001775e-05 4.119325113523493e-05  0.
3.7780878038787844e-05 5.633767513038823e-05  0.
4.3657363859940075e-05 7.001011612111984e-05  0.
4.399499292291954e-05 7.996588944294215e-05  0.
3.9494817936287275e-05 8.404109735803468e-05  0.
3.168272871500944e-05 8.050712523881572e-05  0.
2.0976666495251923e-05 6.634065991227133e-05  0.
-0.0004234530269825307 0.00019911072457125034  0.
-0.0002219231216693149 0.00011390792329285014  0.
-0.00011334020454366523 6.983570749256498e-05  0.
-4.351894949226511e-05 6.446131213219211e-05  0.
9.025403083360117e-06 7.594170821390486e-05  0.
4.7766161064264136e-05 9.562847723994244e-05  0.
7.422776210177792e-05 0.00011834151439599783  0.
8.887208696490236e-05 0.00013992689715896386  0.
9.214521684913222e-05 0.00015663683106582378  0.
8.501407183601736e-05 0.00016499278609426882  0.
6.954475849098776e-05 0.00016204374734443136  0.
4.889126523867066e-05 0.00014632466392884558  0.
-0.0006067215911071978 0.0002947839370151962  0.
-0.00036607843644590436 0.00021544109581166893  0.
-0.00020149772565408145 0.0001637645300284785  0.
-8.701457803230971e-05 0.0001451811653246787  0.
-2.3449331493268544e-06 0.00015042497009705186  0.
6.095577937923344e-05 0.0001685620415787686  0.
0.00010554502706549433 0.00019250392188959692  0.
0.00013247664156006074 0.00021676772645341116  0.
0.00014231660228302827 0.0002365650561409896  0.
0.00013601492242631911 0.0002475372202119003  0.
0.00011573283984181482 0.00024599567503913515  0.
8.574129183643732e-05 0.0002299109705645198  0.
-0.0007836582425764522 0.00040763177465470344  0.
-0.000515210295675414 0.0003342342365960384  0.
-0.00030668747952803 0.00028153809996596716  0.
-0.00014911203674925034 0.00025505062102973674  0.
-2.9195866985743076e-05 0.000251574188453401  0.
6.178792707785183e-05 0.00026371306871226857  0.
0.00012793274207842676 0.00028411205281517654  0.
0.00017087722382198303 0.00030664808089611177  0.
0.00019138743886049352 0.0003259340614786342  0.
0.0001902854291052463 0.00033705621244996655  0.
0.00016939148001214146 0.00033567338572898595  0.
0.0001326950546081246 0.00031866282265888816  0.
-0.0009590493266354073 0.000540005926401417  0.
-0.0006677324364454534 0.00047166860845587353  0.
-0.0004244041965186283 0.0004205079382552847  0.
-0.00022856003980164952 0.0003898555306256757  0.
-7.351025514742332e-05 0.0003789255665959981  0.
4.725173644938064e-05 0.00038332696220856887  0.
0.00013785176155978765 0.000397233795910201  0.
0.00020034562371615817 0.00041479173988093936  0.
0.00023565804808712204 0.0004305219820486131  0.
0.0002444553702138335 0.0004392740530717454  0.
0.00022799900435873006 0.00043625547688724104  0.
0.000189244309995933 0.0004173404661617032  0.
-0.0011356510288701607 0.0006937308924085439  0.
-0.0008239468710291193 0.0006296833837860675  0.
-0.0005522056439642771 0.0005807534642673411  0.
-0.0003234604612385067 0.0005481768010204555  0.
-0.00013552353048144322 0.0005316385449449006  0.
1.536860239953724e-05 0.0005285763182971894  0.
0.00013235082372233748 0.0005348254393562062  0.
0.00021732598961144456 0.0005454991881371367  0.
0.00027121770430910694 0.000555533514777019  0.
0.00029450344504514033 0.0005598961431263115  0.
0.0002878577791868972 0.0005536464583281927  0.
0.00025299787408774064 0.0005320413438366742  0.
-0.0013151211301799498 0.0008706426087646698  0.
-0.0009846541063701871 0.0008103303983547684  0.
-0.0006890284208605759 0.0007636618768784162  0.
-0.0004322746759127465 0.0007303261440515339  0.
-0.00021470790439900178 0.0007097634630171338  0.
-3.480466073369175e-05 0.0007002988784259716  0.
0.00010923372319468731 0.0006990404456403919  0.
0.00021870463833179556 0.0007021959744811208  0.
0.0002942690890845103 0.0007054457917540377  0.
0.0003361524242595909 0.0007041948026390659  0.
0.0003445096573527028 0.0006936844646371859  0.
0.00031995823929884025 0.0006690190764658157  0.
-0.001498457962514713 0.0010726662766838142  0.
-0.0011506492981256111 0.0010157657176506029  0.
-0.0008345714006083322 0.0009712122485487802  0.
-0.000554027574048803 0.0009376886461886602  0.
-0.00031039309552553654 0.0009142497109863324  0.
-0.00010357563627989269 0.000899589700652725  0.
6.703196518856171e-05 0.0008916585206752853  0.
0.00020194709364906255 0.0008876116108185188  0.
0.0003013667605707849 0.0008839530081772281  0.
0.0003651816871906948 0.0008767194692358544  0.
0.0003931166302294759 0.0008616016824793848  0.
0.0003849765799991197 0.000833959866832925  0.
-0.0016861798645289052 0.0013018429845966537  0.
-0.0013225434269677878 0.001248235229263444  0.
-0.000988883095000983 0.0012056795862582029  0.
-0.0006882152352252157 0.0011722655551775385  0.
-0.0004220566690837693 0.0011467431347100248  0.
-0.00019098699876713806 0.0011279635878393575  0.
4.790170832120882e-06 0.0011144262962637875  0.
0.0001650758838594238 0.0011040310932386801  0.
0.00028952782008688824 0.0010940415597480372  0.
0.0003776437311637305 0.001081178348398142  0.
0.0004287913117287962 0.0010617285960751659  0.
0.00044225900835355805 0.0010315801891553314  0.
-0.0018783894402303056 0.0015603077911886007  0.
-0.001500689560117554 0.0015100481516971604  0.
-0.0011520988566355835 0.0014694851246646664  0.
-0.0008346306902643462 0.0014363985886745683  0.
-0.000549401598299284 0.0014093602624206663  0.
-0.0002970601362004063 0.0013873322093987273  0.
-7.818353048112542e-05 0.0013692206027168699  0.
0.00010652097304259609 0.0013535208686818586  0.
0.00025620717719642436 0.0013381542973022807  0.
0.00036996180701030063 0.0013204858885944918  0.
0.00044683986684411643 0.0012974253101516167  0.
0.0004858357606470577 0.001265498129734816  0.
-0.002074801451466904 0.0018502398359289511  0.
-0.0016851370605991502 0.001803526507691564  0.
-0.001324261883030042 0.0017650978914632558  0.
-0.0009931800997683023 0.0017325953245858716  0.
-0.000692306072063007 0.0017045048231439795  0.
-0.0004219100377825241 0.001679914059040668  0.
-0.00018252118581510364 0.0016580970588353308  0.
2.4917492681745497e-05 0.001638081798297816  0.
0.0001991650310560938 0.0016183766136680458  0.
0.00033890349296333827 0.0015969219069971669  0.
0.00044288315079905075 0.0015711939060954409  0.
0.0005099181952675946 0.001538328210961532  0.
-0.0022747656047110735 0.002173799915046298  0.
-0.0018755943472941834 0.002130940794938009  0.
-0.0015051852485901951 0.0020949525164373857  0.
-0.0011636920048574717 0.0020634072491221792  0.
-0.0008506928190193287 0.0020347296782845204  0.
-0.0005657401570185971 0.0020081390879503735  0.
-0.00030891730073005053 0.001983285482756863  0.
-8.108437137992582e-05 0.001959742902797312  0.
0.00011627475152711188 0.0019366030162333084  0.
0.00028144956364928227 0.0019123369808418246  0.
0.00041284359120422217 0.001884899389869247  0.
0.0005090891611717847 0.0018519222707134271  0.
-0.002477342447766447 0.0025330853033325587  0.
-0.002071404398967371 0.0024944525221192787  0.
-0.0016943219870605211 0.0024613783704296073  0.
-0.0013457166581049068 0.002431329465043859  0.
-0.001024321590095722 0.0024026189388276675  0.
-0.0007287164858048889 0.0023745545897067475  0.
-0.0004581330970622009 0.002347158495108627  0.
-0.00021295564169388496 0.00232060897286027  0.
5.31374590178684e-06 0.002294660508665756  0.
0.00019458411197181038 0.0022683377100790087  0.
0.00035280206705678936 0.0022400088712767148  0.
0.0004783002507641942 0.002207650974819633  0.
-0.00268147853645405 0.0029301706219227175  0.
-0.0022715587186980836 0.0028961454360082713  0.
-0.001890651229756378 0.0028665908292998424  0.
-0.001538313974325028 0.002838737799814449  0.
-0.0012125174634667643 0.0028106686161350593  0.
-0.0009106892121767241 0.0027817010221370835  0.
-0.0006308224752038594 0.0027521638622812284  0.
-0.000372298363895187 0.002722862424104858  0.
-0.00013621683232215362 0.0026943674771272206  0.
7.502547591444514e-05 0.0026664065838264625  0.
0.0002587321314040929 0.002637757567557648  0.
0.00041267717680038636 0.0026066264302076463  0.
-0.0028864063499938366 0.0033674812317429884  0.
-0.0024747936317286792 0.0033383171987547543  0.
-0.0020926164569746862 0.0033129401196020014  0.
-0.0017398982868427322 0.0032879623466418  0.
-0.0014138961515072115 0.0032611861773873827  0.
-0.001110793547447979 0.003231883963138408  0.
-0.0008270718233052427 0.003200603351822845  0.
-0.0005605592202695861 0.0031686589149603453  0.
-0.0003111509335410038 0.003137494527378777  0.
-8.107353626603971e-05 0.0031078573295729847  0.
0.00012610430157903826 0.003079177016691589  0.
0.0003071177652384277 0.003049732492333481  0.
-0.003092304392641336 0.0038487337202424564  0.
-0.0026797411354853346 0.0038246927728852018  0.
-0.002298213566057 0.0038037670602989143  0.
-0.0019482857244522364 0.00378186422018613  0.
-0.001626357169964386 0.003756369852308629  0.
-0.0013271847302415798 0.0037268079425470117  0.
-0.0010457461874556653 0.003693989236991838  0.
-0.0007781024776676403 0.003659520578706838  0.
-0.0005221328839971854 0.003625432926820361  0.
-0.0002783585039038301 0.003593604896355296  0.
-5.070744304884874e-05 0.0035646179976866633  0.
0.00015568172518167216 0.003537390703932597  0.
-0.0033016020023165274 0.004383191109111841  0.
-0.0028852628640706297 0.004363166538891401  0.
-0.002505093775221349 0.004346541013295551  0.
-0.002161555662481558 0.004325612158397241  0.
-0.0018479871141370311 0.004298977912234195  0.
-0.0015576256523550031 0.004267303172013803  0.
-0.0012843909066353992 0.004231943866815657  0.
-0.0010230512365701867 0.004194606857847484  0.
-0.0007694782211461407 0.004157391261434507  0.
-0.0005212671502260559 0.004122805893877189  0.
-0.00027897847785972167 0.004093264954140813  0.
-4.972479747391035e-05 0.00406783522851377  0.
-0.003519335870927686 0.004991006474215404  0.
-0.0030873610742205367 0.00497953623308915  0.
-0.002713588947643171 0.004959385490788721  0.
-0.0023814324406690682 0.004929772426407222  0.
-0.002080193320714355 0.00489356211999244  0.
-0.0018021364939194908 0.004853385595227758  0.
-0.001541142623038937 0.00481120499634022  0.
-0.0012918546738520504 0.004768543470944376  0.
-0.0010492961255388756 0.00472686647353694  0.
-0.0008088460275506959 0.004688123769238474  0.
-0.0005665807474238462 0.0046556299900576  0.
-0.00031946334923062204 0.004636291265983701  0.
-0.0037208773702660392 0.005775100973842002  0.
-0.0032983045283307977 0.005732235874222602  0.
-0.002939738482375662 0.005672703726946795  0.
-0.002622305352421706 0.005608775600899033  0.
-0.002334275068722082 0.005544922036797155  0.
-0.0020685123126073235 0.005483175144539276  0.
-0.0018197881572871793 0.005424677150678839  0.
-0.0015836866838678102 0.005370152728903159  0.
-0.0013559853133654329 0.005320039085520886  0.
-0.0011322145904388483 0.0052744983458167406  0.
-0.0009073025831970867 0.0052333889042711365  0.
-0.0006754914327600681 0.005195808385160692  0.
</DataArray>
<DataArray type="Float64" Name="Nodal_sigma_xx" NumberOfComponents="1" format="ascii" >
-72.98877588850172 
-53.566390479756485 
-24.846075454061253 
-8.33942895194632 
4.214898606767922 
13.292166147627471 
19.195143884469704 
22.053295647285765 
22.101168765569234 
19.841521270568343 
15.86742645532484 
13.514021360081623 
-68.344628910719 
-52.98432796198588 
-27.344731663596377 
-9.675370456201057 
3.2765970759976573 
12.755330506601059 
19.02935794524367 
22.247120561050384 
22.604899909777124 
20.51993299036019 
16.64234040419334 
14.346927152862442 
-61.081970295584554 
-51.23017998912634 
-30.912722715734155 
-12.604975763591215 
1.1799866923453592 
11.420630803468333 
18.463549418008498 
22.45228027091568 
23.522184533577146 
21.945982065902427 
18.328036525143077 
16.11262383595752 
-56.760608548984635 
-49.020628808781936 
-32.284580895681565 
-15.360925929585264 
-1.2088633484399278 
9.669567528892996 
17.47154334092644 
22.296123178508424 
24.221547089193262 
23.405394391055232 
20.234937393409837 
18.12949788965257 
-53.964815044065276 
-47.16125302343267 
-32.531332874229605 
-17.249310170638296 
-3.493206109797547 
7.726439660781707 
16.166680583310743 
21.806882532674116 
24.649396237835326 
24.742722679626922 
22.26366046255106 
20.41461819725111 
-52.16586268501621 
-45.7313449121354 
-32.2848868289803 
-18.38285884002539 
-5.354143728098858 
5.833584845447766 
14.702764983127143 
21.05566700541032 
24.798931473458453 
25.882045051901578 
24.31486821513974 
22.875019243078405 
-50.994818466626484 
-44.68427088726065 
-31.87897706224706 
-18.99931197610013 
-6.7424992002507445 
4.173008245659768 
13.23803912908157 
20.14552508166485 
24.707938656968693 
26.792052877294815 
26.29175122326881 
25.383680344498778 
-50.198277655084766 
-43.91768662609407 
-31.4657436527366 
-19.30772372801716 
-7.733627761969642 
2.807847095080114 
11.890771823598213 
19.1832575552306 
24.441664961946067 
27.47551912544305 
28.110966464924577 
27.80735917315538 
-49.58095230427618 
-43.31291887906738 
-31.089226943216612 
-19.45065688703168 
-8.439457573084312 
1.7163574248502431 
10.71224121722545 
18.248795352571015 
24.068821040227924 
27.956188907710406 
29.71048030311222 
30.02923194618796 
-48.97590331781585 
-42.74508175044914 
-30.72992393540426 
-19.505565811981793 
-8.963367136862761 
0.8318634588995564 
9.692728191603441 
17.375997335993183 
23.63834900403848 
28.262619675624805 
31.05136879390708 
31.9627407005749 
-48.22836838884927 
-42.08409831085203 
-30.32716985989432 
-19.494965647203188 
-9.380844881379629 
0.07244817962978778 
8.777785791887656 
16.54877376979067 
23.163175297399803 
28.411715080088914 
32.112750159854286 
33.55527848397803 
-47.18928566582976 
-41.193174816063504 
-29.78705724495954 
-19.392597511625528 
-9.730777726555827 
-0.6398890649681361 
7.883881728641777 
15.70425286543114 
22.611339489710012 
28.394290647098057 
32.88092668387145 
34.78157595584193 
-45.71734638776897 
-39.928424505868904 
-28.980783884302472 
-19.120559631274077 
-10.005791186040131 
-1.36418312290233 
6.910710526116191 
14.735820939520142 
21.89908128687711 
28.16142435488134 
33.33353529057588 
35.62800160997185 
-43.69086481787412 
-38.14202863956791 
-27.736780061813636 
-18.536382802338455 
-10.133238307209972 
-2.1189873131044257 
5.755099637519985 
13.4927885406685 
20.878285982795695 
27.605390000689074 
33.41703780513976 
36.068385722296 
-41.02823774458764 
-35.68939581919253 
-25.82993179451826 
-17.41448306956897 
-9.946138596693062 
-2.841972118598155 
4.344229763844312 
11.783412910771723 
19.311086088336175 
26.522812108597105 
33.009102226631555 
36.02770960659544 
-37.70869203277436 
-32.427935920571514 
-22.967232898069085 
-15.439904989876723 
-9.164915665030492 
-3.338056557803725 
2.718950325288864 
9.427245548589283 
16.838280544379234 
24.537320463591985 
31.84451228630678 
35.31316006511763 
-33.69396409444658 
-28.158109802394343 
-18.771256621180303 
-12.253631770125795 
-7.466735025944436 
-3.2876457908032948 
1.1390048271434106 
6.457789300854382 
13.074520502500928 
20.967827457025933 
29.330399627899233 
33.465443737277326 
-28.51492792768349 
-22.23286244310197 
-12.758015717933786 
-7.786378990335393 
-4.795227440736132 
-2.46133383469606 
0.03698935751698751 
3.365363957244549 
8.160474218327227 
15.00466815010964 
24.127256115411498 
29.24911145904656 
-17.440374748666912 
-12.54082619249774 
-5.824002518743546 
-3.2138224015554515 
-1.9878304266452513 
-1.193573545465155 
-0.3448671399232186 
0.9768283003537228 
3.294868283666115 
7.347942296482673 
14.255276950500495 
18.593418634406177 
-9.352367714681083 
-6.355201541639037 
-2.4189782038436425 
-1.1674454661504075 
-0.735005930399679 
-0.5446677078290116 
-0.35428254907410284 
0.06987946926560579 
1.0957672730965615 
3.364495934042183 
7.8889836697899165 
10.866479429078357 
</DataArray>
<DataArray type="Float64" Name="Nodal_sigma_yy" NumberOfComponents="1" format="ascii" >
-19.958308940042933 
-16.37906276935841 
-9.94986559558538 
-4.456107019206763 
0.2559185097051533 
3.872257056455785 
6.442065788010179 
7.988203055190868 
8.60289424766251 
8.469698510391012 
7.8960528104809224 
7.545844913558853 
-12.349212622248192 
-11.89217897564789 
-9.422647055586658 
-5.235928672733217 
-1.1673374604776865 
2.2566162520675386 
4.924940304449348 
6.8221713801634545 
8.002312777821079 
8.58625612792885 
8.841837407501114 
8.935127101608723 
-3.9752009424692965 
-5.787735449048542 
-7.322503916774881 
-5.805973357089897 
-3.099601980209516 
-0.207319421470678 
2.503232378280134 
4.906686085442015 
6.975238443857332 
8.720782602402902 
10.220712226483627 
10.926072440332494 
-2.8492649233725107 
-3.483159752164214 
-4.691305457558398 
-4.838338660039369 
-3.4306486036169117 
-1.2359418846408816 
1.2684668202395057 
3.853474175453199 
6.412097570319672 
8.874718704644263 
11.120887312625818 
12.16822519414087 
-2.361922485899191 
-2.4801063949278537 
-2.973689541959653 
-3.3110237456670535 
-2.6734526760178743 
-1.0926993409533463 
1.1032092430785443 
3.6749444577769266 
6.474019566670259 
9.384755185149535 
12.23945972534464 
13.625429825576225 
-2.1809856608362783 
-2.0024731643376796 
-1.8870697166867285 
-1.8811571209885911 
-1.3799738698934323 
-0.13249128909989022 
1.8068633361516715 
4.291391633955274 
7.1914494094979275 
10.39272159287138 
13.748952629039323 
15.443474610580258 
-2.0938449887494786 
-1.737147877645436 
-1.1520059989152363 
-0.6662447082379844 
0.05645295375177278 
1.2854169923962058 
3.1200274283049967 
5.54155914891485 
8.486362867193696 
11.879577502256062 
15.627100481536212 
17.575708359626006 
-2.0298618328286366 
-1.5446772389831556 
-0.5894360065063726 
0.3684540403445503 
1.4627865385145624 
2.8859001210017796 
4.780960541636112 
7.21622654956987 
10.204280558251707 
13.727901456931892 
17.753679355922046 
19.887070285077602 
-1.9595564059319048 
-1.3634111585879034 
-0.09691354577455391 
1.2847545854663671 
2.7850907243793666 
4.506559024570089 
6.577443627861534 
9.104539977974774 
12.156919057081808 
15.77158374434778 
19.968727855078946 
22.214926683780078 
-1.8708989551574529 
-1.1670680052476237 
0.3790325134455441 
2.134279347347416 
4.0221883506012155 
6.0694901328923105 
8.368569315053497 
11.033175713321377 
14.164597088275514 
17.838602795394163 
22.112751684655116 
24.406418981489036 
-1.759180032365965 
-0.9466022194199131 
0.8618718488029364 
2.950510098137766 
5.191272589528497 
7.550044977018173 
10.079521621598975 
12.886075047327605 
16.087576282885685 
19.78434950863018 
24.054708323269338 
26.34196647641728 
-1.6240909824660936 
-0.7032533713951027 
1.355033379915945 
3.7488817628373194 
6.3114319989887075 
8.953748487249364 
11.687368822359334 
14.606449635325834 
17.840937516717702 
21.51090973844146 
25.70663170480082 
27.945243358181187 
-1.469389057169845 
-0.44649899754980843 
1.8466717787344358 
4.528616586590579 
7.39591758620063 
10.300807429940027 
13.20615994056185 
16.189251226721645 
19.395167943502877 
22.971084330452022 
27.023663930701794 
29.1792521499244 
-1.3040808789453098 
-0.19227435441526125 
2.3164538573009064 
5.280299508346701 
8.453098722951186 
11.617317040676127 
14.673817530865794 
17.670306157429316 
20.768177982450343 
24.160564233976423 
27.991218241568692 
30.029026619301916 
-1.1358323552320169 
0.04651248442872702 
2.758372960664204 
6.019200298311613 
9.513325723187451 
12.94470487031817 
16.143875422007486 
19.113110845035713 
22.01526838512419 
25.102609222440726 
28.601694123048414 
30.476965431761585 
-0.9874017864126826 
0.28763666847580294 
3.262024164595717 
6.89010514439626 
10.738056447572527 
14.416797191101981 
17.714510930965808 
20.595488848997093 
23.203918405498698 
25.836024636772795 
28.820880407989222 
30.439273947343402 
-0.6984658189936628 
0.7225698930829363 
4.226127612472451 
8.506342474995584 
12.734240939121761 
16.515552675733716 
19.706978944432798 
22.296106693141947 
24.396102890637025 
26.314121492760588 
28.54623683413736 
29.811522163179582 
-0.6140279902216725 
2.0368807678860943 
7.567801933620943 
12.893840219330958 
17.25913498740267 
20.62932818671845 
23.134844945102046 
24.897969833668135 
26.012599160926268 
26.632790397146945 
27.1963341538145 
27.545783562010005 
7.46691129882563 
12.286307143219737 
20.23446997065612 
25.27093201250296 
28.247046434234456 
29.807695664830042 
30.385505566912094 
30.249229624237255 
29.537876250122814 
28.280836093589784 
26.485372352185376 
25.457451370287785 
15.688380748963265 
21.52984692940354 
30.235161515144476 
34.37725033312904 
36.01902887397256 
36.17225432528703 
35.37328904044075 
33.93790141256922 
32.05121668229608 
29.768118506233833 
26.84505871821903 
25.16514739586374 
</DataArray>
<DataArray type="Float64" Name="Nodal_sigma_xy" NumberOfComponents="1" format="ascii" >
4.40303788119448 
2.716431330617261 
0.9315938287166221 
1.6319754996688711 
3.57513271505813 
6.0023762134518535 
8.509582742749803 
10.716766963601508 
12.255894357100626 
12.775221414325292 
11.918478725375085 
11.098859775865442 
0.10293346989076824 
1.1533046686134765 
2.1625312870579445 
2.7698589911282534 
4.414948131847638 
6.553330395840325 
8.808860359421946 
10.841448352843965 
12.318107962360148 
12.915944266713826 
12.382041091833312 
11.808137784653052 
-5.791970898501668 
-1.8488850182015188 
2.9754331168724257 
4.470964543586892 
5.905329176952058 
7.666295964997043 
9.554999812721249 
11.330392780027298 
12.731437754360947 
13.487222892556643 
13.414562775318323 
13.159572048015626 
-8.082663255489068 
-4.237009394844511 
1.7174295916587519 
4.902002149322694 
6.875430308632606 
8.678420398981267 
10.477506022735852 
12.179123161859453 
13.606181262614777 
14.532985638152827 
14.71910060444291 
14.59758841773727 
-9.099845103768324 
-5.787935445320059 
0.08330330715003587 
4.3087740115404936 
7.167911463347453 
9.388343849319192 
11.365903781081908 
13.175742261483858 
14.739484685129367 
15.884763335200347 
16.353872035161853 
16.38172941552525 
-9.572818001825395 
-6.7580228573940175 
-1.3280433651469976 
3.3245026122381622 
6.9094693928649065 
9.716551879122559 
12.07781373058322 
14.161389854433011 
15.978662453852905 
17.423225503178625 
18.272086985693164 
18.511866410712322 
-9.787017421567807 
-7.332614100310241 
-2.363934245834973 
2.3573276743957026 
6.38795023040614 
9.730399095850112 
12.561092612620765 
15.033880789262303 
17.208012197425436 
19.038353237404614 
20.36594803869264 
20.876426851847228 
-9.851589786435254 
-7.6234359326075705 
-3.0151218324160425 
1.612836080311104 
5.852996614560909 
9.582452856646173 
12.850863171623981 
15.752333201353037 
18.347051482713745 
20.62825152382492 
22.502645170777654 
23.320403969029904 
-9.802166312212183 
-7.690381577646242 
-3.3118012380032806 
1.1784969373458796 
5.471647328204341 
9.427819189438825 
13.033402789658759 
16.32888357574224 
19.352191550869797 
22.108367958389927 
24.55167564292161 
25.68569366854901 
-9.643577370937422 
-7.561935162968873 
-3.286704526143053 
1.0827617255727358 
5.341008731004001 
9.387915823873193 
13.204352123866618 
16.806960255196586 
20.212026171020224 
23.418978242678072 
26.404508373389117 
27.83744260663297 
-9.368623782010712 
-7.249516551097672 
-2.9648324658187444 
1.3300731297474226 
5.513599041548883 
9.546695340630624 
13.44562971313351 
17.23849960502495 
20.935682054205806 
24.52555450676328 
27.98495566304043 
29.67883216807185 
-8.967961225175031 
-6.75771859920753 
-2.3633077933440765 
1.9197480127491044 
6.021535299109786 
9.963169119553802 
13.821647046112641 
17.670804952320786 
21.540053312246084 
25.412102593615003 
29.248872272763286 
31.15342689053807 
-8.437945357942883 
-6.093035142213174 
-1.4953136555236246 
2.854969881813568 
6.895769044970612 
10.690907043023405 
14.390134731976937 
18.146057142617178 
22.041458527695173 
26.070484751002063 
30.173774568394734 
32.234933724598704 
-7.7892634288306315 
-5.2720806165993785 
-0.3750331066267989 
4.145352939190283 
8.178055452494634 
11.797860085304087 
15.223332195118566 
18.714267900409567 
22.455358546881563 
26.488855798778026 
30.74010633658139 
32.905863205902904 
-7.05529339289252 
-4.325518907790939 
0.9839808379506588 
5.807982051202262 
9.921149957368844 
13.37364165445113 
16.429774762300266 
19.461351871078417 
22.809674424486097 
26.64254595363857 
30.905430409192803 
33.12472214454594 
-6.290773517785881 
-3.2786767823783194 
2.602440262434774 
7.884230587459127 
12.176500958392115 
15.497703272196915 
18.135937478088483 
20.53266853351993 
23.187671769740685 
26.499390403473093 
30.567882634210335 
32.779460659405416 
-5.515448439509756 
-2.0517174904510584 
4.683458826609687 
10.531065863170571 
14.97537121579036 
18.139660803563608 
20.34918731588666 
22.034353074192328 
23.739731427196514 
26.09108594793106 
29.548201602859777 
31.58755594036323 
-4.466365693357646 
0.0831888776348837 
8.15939366331755 
14.139866396924393 
18.243897600716025 
20.958543393792777 
22.663243671480135 
23.679246013887997 
24.392017082536526 
25.39512685927025 
27.611453927141127 
29.161703114004474 
2.2223766729936036 
7.027771494533693 
14.475685300195314 
18.68497378233669 
21.23663759539329 
22.841251987193758 
23.80627253564598 
24.261454711621713 
24.28564689442357 
24.023783541712486 
23.881737765928026 
23.915865821369284 
8.25532743026111 
12.517537453126518 
18.516385034327516 
21.118912260156122 
22.498177843776848 
23.340511619765056 
23.855267254738994 
24.061514134053404 
23.868273300752747 
23.089824004153996 
21.381400934730898 
20.237737224404924 
</DataArray>
</PointData>
<CellData>
</CellData>
<Points>
<DataArray type="Float64" Name="Points" NumberOfComponents="3" format="ascii">
0.0 50.0 0.0
0.0 45.4545441 0.0
0.0 40.9090919 0.0
0.0 36.363636 0.0
0.0 31.818182 0.0
0.0 27.272728 0.0
0.0 22.727272 0.0
0.0 18.181818 0.0
0.0 13.636364 0.0
0.0 9.090909 0.0
0.0 4.5454545 0.0
0.0 0.0 0.0
2.52631569 50.5263176 0.0
2.52631569 46.1435394 0.0
2.52631569 41.7607651 0.0
2.52631569 37.3779907 0.0
2.52631569 32.9952164 0.0
2.52631569 28.6124401 0.0
2.52631569 24.2296658 0.0
2.52631569 19.8468895 0.0
2.52631569 15.4641151 0.0
2.52631569 11.0813398 0.0
2.52631569 6.69856453 0.0
2.52631569 2.31578946 0.0
5.05263138 51.0526314 0.0
5.05263138 46.8325348 0.0
5.05263138 42.612442 0.0
5.05263138 38.3923454 0.0
5.05263138 34.1722488 0.0
5.05263138 29.9521523 0.0
5.05263138 25.7320576 0.0
5.05263138 21.511961 0.0
5.05263138 17.2918663 0.0
5.05263138 13.0717707 0.0
5.05263138 8.85167503 0.0
5.05263138 4.63157892 0.0
7.57894754 51.578949 0.0
7.57894754 47.5215302 0.0
7.57894754 43.4641151 0.0
7.57894754 39.4067001 0.0
7.57894754 35.3492813 0.0
7.57894754 31.2918663 0.0
7.57894754 27.2344494 0.0
7.57894754 23.1770344 0.0
7.57894754 19.1196175 0.0
7.57894754 15.0622005 0.0
7.57894754 11.0047846 0.0
7.57894754 6.94736862 0.0
10.1052628 52.1052628 0.0
10.1052628 48.2105255 0.0
10.1052628 44.3157883 0.0
10.1052628 40.421051 0.0
10.1052628 36.5263176 0.0
10.1052628 32.6315804 0.0
10.1052628 28.7368412 0.0
10.1052628 24.8421059 0.0
10.1052628 20.9473686 0.0
10.1052628 17.0526314 0.0
10.1052628 13.1578951 0.0
10.1052628 9.26315784 0.0
12.6315794 52.6315804 0.0
12.6315794 48.8995209 0.0
12.6315794 45.1674652 0.0
12.6315794 41.4354057 0.0
12.6315794 37.7033501 0.0
12.6315794 33.9712906 0.0
12.6315794 30.2392349 0.0
12.6315794 26.5071774 0.0
12.6315794 22.7751198 0.0
12.6315794 19.0430622 0.0
12.6315794 15.3110046 0.0
12.6315794 11.5789471 0.0
15.1578951 53.1578941 0.0
15.1578951 49.5885162 0.0
15.1578951 46.0191383 0.0
15.1578951 42.4497604 0.0
15.1578951 38.8803825 0.0
15.1578951 35.3110046 0.0
15.1578951 31.7416267 0.0
15.1578951 28.1722488 0.0
15.1578951 24.6028709 0.0
15.1578951 21.033493 0.0
15.1578951 17.4641151 0.0
15.1578951 13.8947372 0.0
17.6842098 53.6842117 0.0
17.6842098 50.2775116 0.0
17.6842098 46.8708153 0.0
17.6842098 43.4641151 0.0
17.6842098 40.057415 0.0
17.6842098 36.6507187 0.0
17.6842098 33.2440186 0.0
17.6842098 29.8373203 0.0
17.6842098 26.4306221 0.0
17.6842098 23.0239239 0.0
17.6842098 19.6172256 0.0
17.6842098 16.2105255 0.0
20.2105255 54.2105255 0.0
20.2105255 50.966507 0.0
20.2105255 47.7224884 0.0
20.2105255 44.4784698 0.0
20.2105255 41.2344513 0.0
20.2105255 37.9904289 0.0
20.2105255 34.7464104 0.0
20.2105255 31.5023918 0.0
20.2105255 28.2583733 0.0
20.2105255 25.0143547 0.0
20.2105255 21.7703342 0.0
20.2105255 18.5263157 0.0
22.7368412 54.7368431 0.0
22.7368412 51.6555023 0.0
22.7368412 48.5741615 0.0
22.7368412 45.4928246 0.0
22.7368412 42.4114838 0.0
22.7368412 39.330143 0.0
22.7368412 36.2488022 0.0
22.7368412 33.1674652 0.0
22.7368412 30.0861244 0.0
22.7368412 27.0047855 0.0
22.7368412 23.9234447 0.0
22.7368412 20.8421059 0.0
25.2631588 55.2631569 0.0
25.2631588 52.3444977 0.0
25.2631588 49.4258385 0.0
25.2631588 46.5071754 0.0
25.2631588 43.5885162 0.0
25.2631588 40.669857 0.0
25.2631588 37.7511978 0.0
25.2631588 34.8325348 0.0
25.2631588 31.9138756 0.0
25.2631588 28.9952145 0.0
25.2631588 26.0765553 0.0
25.2631588 23.1578941 0.0
27.7894745 55.7894745 0.0
27.7894745 53.033493 0.0
27.7894745 50.2775116 0.0
27.7894745 47.5215302 0.0
27.7894745 44.7655487 0.0
27.7894745 42.0095711 0.0
27.7894745 39.2535896 0.0
27.7894745 36.4976082 0.0
27.7894745 33.7416267 0.0
27.7894745 30.9856453 0.0
27.7894745 28.2296658 0.0
27.7894745 25.4736843 0.0
30.3157902 56.3157883 0.0
30.3157902 53.7224884 0.0
30.3157902 51.1291847 0.0
30.3157902 48.5358849 0.0
30.3157902 45.942585 0.0
30.3157902 43.3492813 0.0