<?xml version="1.0"?>
<VTKFile type="UnstructuredGrid" version="0.1" byte_order="LittleEndian" compressor="vtkZLibDataCompressor">
<UnstructuredGrid>
<Piece NumberOfPoints="240" NumberOfCells="209">
<PointData>
<DataArray type="Float64" Name="displacement" NumberOfComponents="3" format="ascii" >
0.0 0.0  0.
0.0 0.0  0.
0.0 0.0  0.
0.0 0.0  0.
0.0 0.0  0.
0.0 0.0  0.
0.0 0.0  0.
0.0 0.0  0.
0.0 0.0  0.
0.0 0.0  0.
0.0 0.0  0.
0.0 0.0  0.
-0.00011196060653648188 5.942159087196789e-05  0.
-4.5289837478831665e-05 1.3716129313091253e-05  0.
-2.424740130104631e-05 6.314882122823844e-06  0.
-7.933691275653698e-06 8.076427964826306e-06  0.
4.137664886111692e-06 1.3436459799589053e-05  0.
1.3029692798114673e-05 2.059555221796502e-05  0.
1.8890816152884367e-05 2.8167999847961464e-05  0.
2.18291953376093e-05 3.5004607466013715e-05  0.
2.1998020289594927e-05 3.99829085588251e-05  0.
1.9747837152765267e-05 4.202083823090462e-05  0.
1.584164871849594e-05 4.025402321105786e-05  0.
1.0488531349995497e-05 3.317085049729086e-05  0.
-0.0002117335614236254 9.95604492496673e-05  0.
-0.00011096686472681174 5.695678320560638e-05  0.
-5.66736041928685e-05 3.4918611484729056e-05  0.
-2.176150133998419e-05 3.222992142399508e-05  0.
4.511871755847527e-06 3.7969280828244484e-05  0.
2.3883181726497763e-05 4.781242348129379e-05  0.
3.7114637899842795e-05 5.916917718266491e-05  0.
4.4437170477917354e-05 6.996241718150277e-05  0.
4.607382071937509e-05 7.831805454102094e-05  0.
4.250807974682294e-05 8.249663498483359e-05  0.
3.4773092765008674e-05 8.102251406725277e-05  0.
2.4446047885868125e-05 7.316317078978233e-05  0.
-0.00030337018029166925 0.00014739892697256926  0.
-0.00018304710984265996 0.00010772471278331393  0.
-0.00010075451791129135 8.188390360812649e-05  0.
-4.351078891626926e-05 7.259019507948121e-05  0.
-1.174085457619559e-06 7.521079916883902e-05  0.
3.047780486742399e-05 8.427877722758009e-05  0.
5.277356711772205e-05 9.624979674248519e-05  0.
6.624008019688142e-05 0.0001083822397876028  0.
7.116031828736027e-05 0.00011828168616286215  0.
6.800931293149585e-05 0.00012376855652305327  0.
5.786778211835784e-05 0.0001229983813510919  0.
4.287141823577843e-05 0.00011495635218438567  0.
-0.00039184075105964976 0.00020382495161364077  0.
-0.00025761533780770894 0.00016712284502048755  0.
-0.00015335147798579496 0.00014077179203617505  0.
-7.456109174806271e-05 0.00012752558548031361  0.
-1.460051312201956e-05 0.000125785637890987  0.
3.089352295698231e-05 0.00013185415724519876  0.
6.396760032859888e-05 0.0001420534734911072  0.
8.544096352080673e-05 0.00015332189639008316  0.
9.569660046879762e-05 0.00016296565660503613  0.
9.51455344178282e-05 0.00016852760739874666  0.
8.469798793194306e-05 0.0001678369287065177  0.
6.634889814715819e-05 0.000159332066896309  0.
-0.0004795385055215998 0.0002700145637210243  0.
-0.0003338784943968951 0.00023584198562743205  0.
-0.00021221175212461142 0.0002102581512648195  0.
-0.00011428663473805035 0.00019492902842150356  0.
-3.675873770779866e-05 0.00018946188488290733  0.
2.362495371662512e-05 0.0001916612685622419  0.
6.892717139743653e-05 0.000198614187688948  0.
0.00010017568855329292 0.00020739334472580622  0.
0.00011783278307538549 0.00021525912386715425  0.
0.00012223158975026993 0.00021963603109373777  0.
0.00011400285735441818 0.00021812755168248415  0.
9.462442182525308e-05 0.000208670542772932  0.
-0.0005678415113299214 0.0003468801499713359  0.
-0.0004119876277461581 0.00031485184860786854  0.
-0.00027611419599696995 0.000290382813540957  0.
-0.00016173826593111283 0.00027409105853371966  0.
-6.776637901544041e-05 0.00026581930597176847  0.
7.682870331429122e-06 0.00026428644923025984  0.
6.617669158988055e-05 0.0002674101355688062  0.
0.00010866633772902546 0.0002727468981796838  0.
0.00013561348405633837 0.00027776452455184804  0.
0.00014725679468537636 0.00027994662743249706  0.
0.00014393354669147733 0.00027682261125843495  0.
0.00012650241442747315 0.00026602061975125764  0.
-0.0006575786001015003 0.00043533978782038843  0.
-0.0004923429844460544 0.0004051784580749241  0.
-0.0003445270895238925 0.00038183949303938674  0.
-0.00021614661085219103 0.00036516763984079006  0.
-0.00010735945757831378 0.00035488316062338163  0.
-1.740423609306901e-05 0.0003501486482208252  0.
5.46181246584655e-05 0.0003495181270712792  0.
0.00010935610974121284 0.0003510954176486632  0.
0.00014714005692309553 0.00035272052105028614  0.
0.00016808252499636982 0.0003520956604644369  0.
0.00017226096423048152 0.0003468412826835147  0.
0.00015998412182673138 0.0003345092193623409  0.
-0.0007492488576223491 0.0005363561758990974  0.
-0.0005753420931871753 0.0005078999452743557  0.
-0.00041729983031404006 0.00048561783452095184  0.
-0.0002770240561937022 0.0004688514325732876  0.
-0.00015520275329370894 0.0004571282592758751  0.
-5.1790069668202614e-05 0.0004497955044589281  0.
3.351730523897513e-05 0.0004458281224693049  0.
0.00010097783280120923 0.00044380376784765064  0.
0.00015068982549818223 0.00044197432310331497  0.
0.00018259849267749314 0.00043835796321354344  0.
0.00019656611116772286 0.0004307997704821419  0.
0.0001924951353072842 0.00041697954316526704  0.
-0.0008431113513757267 0.0006509499505201796  0.
-0.0006612903599451034 0.0006241393502121289  0.
-0.0004944566050920294 0.0006028554479169219  0.
-0.0003441185693102551 0.0005861431807957914  0.
-0.000211034964170741 0.0005733776542384656  0.
-9.549587430247339e-05 0.0005639845520028581  0.
2.396637877350977e-06 0.0005572135705874288  0.
8.254285758289541e-05 0.0005520145794755387  0.
0.00014477141317164336 0.0005470192605862938  0.
0.0001888310013553693 0.0005405877675417698  0.
0.00021440533106532818 0.0005308634363613919  0.
0.00022113853447376734 0.0005157899246339117  0.
-0.0009392172569947577 0.0007801887266552555  0.
-0.0007503642021888595 0.0007550513763673859  0.
-0.0005760649879014978 0.0007347630563103517  0.
-0.0004173265683875973 0.0007182138650949914  0.
-0.0002747074764219119 0.0007046897469909973  0.
-0.0001485322390338992 0.0006936717739294016  0.
-3.908970657629345e-05 0.0006846130406054214  0.
5.3266268866714924e-05 0.0006767612313464942  0.
0.0001281123696561443 0.0006690769122140908  0.
0.00018499175950071012 0.0006602424449932499  0.
0.00022343177374785383 0.0006487124664930342  0.
0.00024292948632150368 0.0006327495113205113  0.
-0.001037423801846914 0.0009251621492727192  0.
-0.0008425881547666459 0.0009017971239353101  0.
-0.0006621464416203573 0.0008825752762831322  0.
-0.0004966010057045112 0.0008663173954889744  0.
-0.0003461592596819316 0.0008522665435443004  0.
-0.00021095653500773225 0.0008399665765880042  0.
-9.125763051302505e-05 0.0008290545135090429  0.
1.2465749410737324e-05 0.0008190443307130718  0.
9.959290589087023e-05 0.0008091901497550712  0.
0.00016946465983344285 0.000798462072382096  0.
0.00022145595856335457 0.0007855980551329644  0.
0.0002549737425567982 0.0007691656890594007  0.
-0.001137405656923974 0.001086950675250803  0.
-0.0009378162507278639 0.001065511918551379  0.
-0.0007526073340912804 0.0010475095160195516  0.
-0.000581855989454625 0.001031729629799844  0.
-0.0004253515224200142 0.001017384615223397  0.
-0.0002828703400098591 0.0010040841020722945  0.
-0.00015445424605275924 0.0009916530853603738  0.
-4.053347630747685e-05 0.000979878586219248  0.
5.8149830012739496e-05 0.0009683064267600704  0.
0.00014074020558294694 0.0009561721316021176  0.
0.0002064392061812039 0.0009424528847378363  0.
0.000254562817705751 0.000925964532362278  0.
-0.0012386928853719698 0.0012666029780421771  0.
-0.0010357197745769554 0.001247276569508109  0.
-0.0008471739792411026 0.001230730533392554  0.
-0.0006728664464631347 0.0012156982168663006  0.
-0.0005121639477293533 0.0012013361476744457  0.
-0.00036435646876222894 0.001187298163587409  0.
-0.00022905999797373695 0.001173595265849728  0.
-0.00010646677100577941 0.0011603166149397521  0.
2.671978080401745e-06 0.0011473394749112542  0.
9.731056388880716e-05 0.0011341761484414067  0.
0.00017642206805456516 0.0011200107239809826  0.
0.0002391726073305161 0.0011038315701823423  0.
-0.0013407585274724096 0.0014651563788777625  0.
-0.00113579424463489 0.0014481329711609936  0.
-0.0009453357037111873 0.001433346051561677  0.
-0.0007691620929703816 0.0014194111331516056  0.
-0.0006062588403136753 0.001405369249438554  0.
-0.0004553397958106439 0.0013908791413690337  0.
-0.00031540163860909945 0.001376105140274261  0.
-0.0001861349871442964 0.0013614498693376635  0.
-6.808993188984301e-05 0.0013471987551282893  0.
3.7535022706258774e-05 0.001333215637751346  0.
0.00012939142706635485 0.001318889442070467  0.
0.0002063660662481736 0.001303323102888536  0.
-0.0014432185551609149 0.0016838235544436538  0.
-0.0012374075547580085 0.0016692299318942661  0.
-0.0010463139585502558 0.0016565311628722085  0.
-0.0008699498003028495 0.001644033432330715  0.
-0.0007069437713438139 0.001630637705507594  0.
-0.0005553876648561838 0.0016159799339183455  0.
-0.00041352213097541036 0.0016003337712439717  0.
-0.000280261270862604 0.001584356430792275  0.
-0.0001555527233607928 0.0015687698794337836  0.
-4.050990365995867e-05 0.0015539477949438388  0.
6.308262902307748e-05 0.0015396051332278585  0.
0.00015359218857313598 0.0015248813701855524  0.
-0.0015461619121233529 0.001924462828014777  0.
-0.001339875350427559 0.0019124298671756106  0.
-0.0011491063057625457 0.0019019561959668781  0.
-0.000974137245045803 0.0018909956118383139  0.
-0.0008131681452116581 0.001878240611941328  0.
-0.0006635773892690024 0.0018634528382271746  0.
-0.0005228537437635794 0.0018470374006034711  0.
-0.0003890275545330531 0.0018297975712592846  0.
-0.0002610384077643621 0.0018127488025532837  0.
-0.00013914691224321154 0.0017968304939567456  0.
-2.531729583963598e-05 0.0017823336062209488  0.
7.788086254198013e-05 0.0017687175407771665  0.
-0.001650802759038176 0.0021917059123459917  0.
-0.001442627870090035 0.0021816799283448326  0.
-0.0012525376811237136 0.00217335573210519  0.
-0.001080763535597429 0.0021628819891300437  0.
-0.0009239748143435471 0.002149557045909509  0.
-0.000778790076318089 0.0021337128919425895  0.
-0.0006421688948016014 0.002116027160161727  0.
-0.0005114952257815438 0.002097353056614445  0.
-0.0003847046859771014 0.002078740020484828  0.
-0.00026059485230582694 0.0020614424587692493  0.
-0.0001394460781481975 0.0020466675926459205  0.
-2.4814940461725098e-05 0.002033949221593552  0.
-0.001759658731302175 0.002495630209597771  0.
-0.0015436644344532964 0.0024898790805757275  0.
-0.0013567725980138988 0.0024797919416281707  0.
-0.001190690004996707 0.0024649759790343053  0.
-0.0010400669696080567 0.002446862966929907  0.
-0.00090103553985243 0.002426767947021715  0.
-0.0007705357395330323 0.0024056716653887813  0.
-0.0006458887983299588 0.0023843354417966466  0.
-0.0005246062256616502 0.0023634918006546057  0.
-0.0004043773299970333 0.002344115486022179  0.
-0.0002832401374422651 0.0023278637691600255  0.
-0.0001596763493608844 0.0023181896101727843  0.
-0.0018604085118205775 0.0028876977251053705  0.
-0.0016491150603415105 0.002866247878272322  0.
-0.0014698292428116048 0.0028364686831087327  0.
-0.0013111108720839533 0.002804494139847943  0.
-0.0011670942874756338 0.0027725587043299356  0.
-0.0010342115267732359 0.002741677963922961  0.
-0.0009098479454910627 0.0027124227147009195  0.
-0.0007917954370935673 0.002685155047149452  0.
-0.0006779425646274496 0.00266009334418235  0.
-0.0005660544265580337 0.0026373184486614925  0.
-0.00045359481322220755 0.002616759352917439  0.
-0.0003376843566003595 0.0025979648989657954  0.
</DataArray>
<DataArray type="Float64" Name="Nodal_sigma_xx" NumberOfComponents="1" format="ascii" >
-36.49357816755095 
-26.78300611859753 
-12.423465397978639 
-4.170044332709823 
2.107340930741081 
6.646219889890712 
9.597906285600045 
11.027089488272612 
11.051029435647111 
9.921125696734972 
7.9339677351535 
6.7572105635933655 
-34.17160276201631 
-26.491980932662344 
-13.672764875448188 
-4.838046976574137 
1.6381595110805816 
6.377784263175592 
9.51501320510432 
11.124019057987956 
11.302924446396851 
10.260363514614866 
8.321447642586936 
7.173679244340821 
-30.540456696027977 
-25.614939950194753 
-15.456711737213187 
-6.30289005810418 
0.5897962833142227 
5.710392719953626 
9.23209863210423 
11.226624256663136 
11.761622206449402 
10.973457020251805 
9.164352212594498 
8.056570521331087 
-28.379936092525462 
-24.510226189218066 
-16.142611725529537 
-7.680873464369733 
-0.6046751982464711 
4.834812830700535 
8.736069334803195 
11.148554819059573 
12.111350684304568 
11.703238247122844 
10.117878593343118 
9.06507479823398 
-26.982179670580834 
-23.580612234870152 
-16.265981391555677 
-8.625064330865914 
-1.7468783351264614 
3.8632029279651547 
8.083603384123196 
10.903930738980604 
12.325312383514277 
12.371977399881892 
11.132332052727818 
10.207727514602302 
-26.082825543176014 
-22.86573747112386 
-16.142773654346428 
-9.191840310526825 
-2.6773695109902564 
2.91673555498578 
7.35160831408286 
10.528309966627667 
12.400106859108858 
12.94170998424529 
12.15804017613625 
11.438043376390457 
-25.497411097127056 
-22.3422810300137 
-15.939851216600424 
-9.500077768519464 
-3.371566764136263 
2.0864126669015626 
6.619208508919163 
10.073219908699643 
12.35462786828398 
13.396779285728915 
13.146593655227276 
12.692506880666492 
-25.099238841577346 
-21.95906952765283 
-15.733279608951367 
-9.654305733648803 
-3.867152928207284 
1.4038001541717797 
5.945539122446196 
9.592063170397363 
12.221500217352887 
13.738570110322334 
14.0563155550701 
13.904489526664044 
-24.790669543545793 
-21.656766751603058 
-15.545075467947338 
-9.72580512810372 
-4.2200952234486415 
0.8580229111106998 
5.356238356146627 
9.124806224887397 
12.035080320622244 
13.978953851236191 
14.85618332159649 
15.015570855337948 
-24.488237805557574 
-21.37293096545035 
-15.36548487081753 
-9.753301565340877 
-4.482084193773249 
0.41574046408652493 
4.84644488765505 
8.688378282536648 
11.819839711650527 
14.132208332983122 
15.526729611862478 
15.982463389966851 
-24.114565871735273 
-21.042525139926397 
-15.16417388712758 
-9.748050714245878 
-4.690863994872064 
0.03599258554523477 
4.388933110597508 
8.274733070135905 
11.582241008281189 
14.206784274057174 
16.057508978574752 
16.77885640804027 
-23.59512524879549 
-20.59715362250141 
-14.894187778496988 
-9.696921194000518 
-4.865877092876082 
-0.32022185172379164 
3.94193470256316 
7.852432144301726 
11.306301834661035 
14.19808741766927 
16.44166872300123 
17.392109741418665 
-22.859262665548584 
-19.964873603313833 
-14.491124577485358 
-9.560960072076362 
-5.0034344614935575 
-0.6824200904004498 
3.4552949828689545 
7.3681650434828825 
10.950137850722049 
14.081652887284665 
16.668023384757227 
17.81540336323624 
-21.846134723695805 
-19.071775197255217 
-13.869198055534852 
-9.268930027452713 
-5.0672097626708865 
-1.059877329574807 
2.8774264696937304 
6.746582657597324 
10.439685060624644 
13.803610672357877 
16.709798283732745 
18.035647716650026 
-20.51493809418696 
-17.845560890657364 
-12.915848071775136 
-8.7080341209201 
-4.973707685089226 
-1.4214254142176364 
2.171919837069484 
5.891809392511167 
9.656000615621464 
13.262261574242737 
16.505817610463478 
18.01532543647556 
-18.85528600401623 
-16.214933203404712 
-11.48456405928374 
-7.720783912421691 
-4.583130166495874 
-1.669517189407653 
1.3592022792892244 
4.713618335616028 
8.419473902912586 
12.269403272866215 
15.923455298208648 
17.658013898749086 
-16.848055994449226 
-14.08012089118256 
-9.386614574513558 
-6.127648646194429 
-3.7340422688131305 
-1.6443441363755293 
0.569150666442952 
3.2287596320498886 
6.537421668387507 
10.484471262210093 
14.666246760495602 
16.73403406853459 
-14.258713885640816 
-11.117590194287805 
-6.379962303703128 
-3.893953019162954 
-2.3982450349173847 
-1.2311960658634362 
0.01806845576665181 
1.6823947346157544 
4.080168417058541 
7.50261047676543 
12.06439720574776 
14.625607730130092 
-8.72165082355435 
-6.271605355499141 
-2.9128220657439967 
-1.6075837868834422 
-0.994513688928527 
-0.597340563667121 
-0.17294772987822243 
0.4879575345891929 
1.647087203593521 
3.673845410221024 
7.127942508643892 
9.29729515429796 
-4.677757267060973 
-3.1787832060062495 
-1.2102175136796423 
-0.5843611775403013 
-0.3681025922524013 
-0.27291455757925415 
-0.17770776042094766 
0.03439475479215903 
0.5473894184573793 
1.6818875690694766 
3.9445065259370358 
5.433532123550214 
</DataArray>
<DataArray type="Float64" Name="Nodal_sigma_yy" NumberOfComponents="1" format="ascii" >
-9.979198738591494 
-8.18962520040063 
-4.975056342912918 
-2.228131181861372 
0.1279408311311631 
1.9361780125690706 
3.221148291008098 
3.994270242284535 
4.301646162298441 
4.235049076929128 
3.9481985393726022 
3.773074324161821 
-6.174592188666118 
-5.946098883484137 
-4.711354995693857 
-2.617984903707403 
-0.5836629242377315 
1.1283524187946183 
2.462558975909385 
3.411217703913452 
4.001321597435821 
4.293308017224042 
4.421090032957708 
4.467724478595386 
-1.9875233091166757 
-2.8937712930969512 
-3.661144679205756 
-2.902901111018771 
-1.54973731199817 
-0.10360562747576241 
1.2516765252312356 
2.4534248978359776 
3.4877332960055374 
4.360538856011097 
5.110524212404492 
5.46320933124682 
-1.4245478592354575 
-1.7414568476727614 
-2.345482628247237 
-2.419006002312888 
-1.7151966052822738 
-0.6178786935790863 
0.6343050508957204 
1.926809710670924 
3.206144637285588 
4.437494258454232 
5.560616890697361 
6.084301980342017 
-1.1808724229936765 
-1.2399239206469788 
-1.4866541174041186 
-1.6553062271959125 
-1.3365465393138531 
-0.5462103657806051 
0.5517107276874809 
1.8375659596501026 
3.237118329174561 
4.692526627217842 
6.119932502856341 
6.8129452365182495 
-1.09040012330342 
-1.001104577323088 
-0.9433380356400618 
-0.9403527206173765 
-0.6897706736027088 
-0.0660610508075073 
0.9035836913972057 
2.1458317559882514 
3.5958723474081795 
5.196552025826334 
6.874737333526788 
7.722038336742159 
-1.0468234773727538 
-0.8684368785465884 
-0.5758016210721384 
-0.3328848639130327 
0.02846886478622032 
0.6429336735123199 
1.560216223758258 
2.7709714280862086 
4.243388954386115 
5.940047325005128 
7.8138969949896335 
8.788253988035354 
-1.0148229272250302 
-0.7721931321735409 
-0.2945090457376356 
0.18447571708137128 
0.7316580543351188 
1.4432127834451052 
2.3907349454768676 
3.6083693878092826 
5.102422528868025 
6.864296310817341 
8.877293857961606 
9.944055620623814 
-0.9796588531800905 
-0.6815486642528159 
-0.04823631148724482 
0.6426403614438889 
1.3928334959223678 
2.2535796125826772 
3.2890298742913116 
4.5525951254153085 
6.0788256556450015 
7.886237167677967 
9.98493896754501 
11.108117304918753 
-0.9353166360228966 
-0.5833632480599791 
0.18975165425237614 
1.0674212182089522 
2.01140901115867 
3.035084681682389 
4.1846477967574405 
5.516984497774869 
7.082752633347068 
8.919851718667337 
11.057075795303753 
12.203999409068585 
-0.8794416643658941 
-0.4731145732952534 
0.43118881194016184 
1.475558769669451 
2.595981872001455 
3.77540501804097 
5.040181284948132 
6.443506757549666 
8.044330216164278 
9.892828665567857 
12.028174189393471 
13.171901809463726 
-0.81187956646814 
-0.35142273148843883 
0.6777886733502771 
1.87476940822721 
3.156095913999871 
4.477303391813873 
5.844164838159574 
7.3037670194609605 
8.92109605412507 
10.75620570768811 
12.854244041107155 
13.973653883612323 
-0.7345087586036612 
-0.22302669057057817 
0.9236275046768769 
2.264662682757617 
3.6983753807779625 
5.150882719110922 
6.603623079031592 
8.095241013057798 
9.698292279096872 
11.486379923124744 
13.512851641998513 
14.590751717598971 
-0.6518321399365494 
-0.09589429414494527 
1.158537225080884 
2.6405287945751095 
4.227002909173977 
5.809189483681358 
7.337517128140487 
8.835842154545972 
10.384873771857391 
12.081195026910121 
13.996700574095929 
15.015708745625552 
-0.5676820070084698 
0.023520035535156886 
1.3795122267557995 
3.0099994578946037 
4.757150871862634 
6.4729357535914325 
8.072613456236743 
9.557319031266399 
11.00849105517912 
12.552279731053934 
14.301987655590644 
15.239720505558353 
-0.49343602614096005 
0.14410334323550078 
1.6313471895705667 
3.4454650457410074 
5.369546372105294 
7.209033353159292 
8.85799975461308 
10.298583147089953 
11.602883522022694 
12.919034285472303 
14.411601425667069 
15.220882152420334 
-0.3489309766336661 
0.3615913992928406 
2.1134029598741098 
4.25359714987515 
6.367674827464668 
8.25846743945726 
9.854302771402459 
11.148962879147682 
12.199032960279279 
13.15810821032628 
14.274259608971157 
14.906961123151257 
-0.30666008087569685 
1.0187777349807337 
3.784281429134546 
6.447436760527315 
8.63023213558627 
10.315458853552109 
11.568318837833658 
12.449950341771263 
13.007302157915595 
13.317415095841133 
13.599217873116402 
13.77396721295214 
3.7340488664813294 
6.143866773810748 
10.118153783615247 
12.636514922614847 
14.124630507876034 
14.904961767891697 
15.193838186926191 
15.125647394864671 
14.7698987060094 
14.141291067908057 
13.243476167447733 
12.729479716050504 
7.844991151569927 
10.76599244831984 
15.11899784033324 
17.190124466947715 
18.010976383416825 
18.087487550946594 
17.687870511668063 
16.970027777982303 
16.026530565647914 
14.88481933091302 
13.423126772899057 
12.583092149281178 
</DataArray>
<DataArray type="Float64" Name="Nodal_sigma_xy" NumberOfComponents="1" format="ascii" >
2.2013932555552627 
1.3581613450216838 
0.465757484333527 
0.8158588805288475 
1.7874111663048806 
3.0010783724581556 
4.2547756730547635 
5.358475536063773 
6.128124674954673 
6.387826202011109 
5.95944092382009 
5.54961242832399 
0.051363976620056206 
0.5765604088983001 
1.0811631294879098 
1.384787534170019 
2.2073249343760626 
3.2765641036574786 
4.404417744399354 
5.420812977172231 
6.159225595508302 
6.458184469247569 
6.191225591209048 
5.904258980290214 
-2.8960690137969993 
-0.924593856452655 
1.487507789752029 
2.2352938369231197 
2.952508109412305 
3.833051564738585 
4.777489714706532 
5.6652818180097 
6.365886782127591 
6.743827552278138 
6.70750033037617 
6.579994607958479 
-4.04141662160619 
-2.1186849843014177 
0.8584364813358224 
2.4507454232740145 
3.4375199293592043 
4.339094988837266 
5.238734445540589 
6.0896455932977585 
6.803266101538945 
7.266729236827077 
7.359799824791625 
7.299036427656787 
-4.550005177138613 
-2.894157662377094 
0.04133242321128219 
2.154070174888475 
3.583706828197733 
4.694020141495781 
5.682912778897165 
6.587949683839245 
7.3699292089133355 
7.9426492744169686 
8.177235867606772 
8.191165811987208 
-4.786494671679132 
-3.379206365413456 
-0.6643637738591812 
1.6618870817233513 
3.454431494640443 
4.858078430473978 
6.038837630563753 
7.080762366738162 
7.989529618337309 
8.711918966455002 
9.136412402675589 
9.256319113082618 
-4.893603113106645 
-3.666508388919459 
-1.182323422121564 
1.1782652613332036 
3.1936246084276165 
4.864955436560217 
6.2804421522780824 
7.516992262194559 
8.604214852838103 
9.519526231313474 
10.18342718854663 
10.438706041867107 
-4.9259023531297235 
-3.8119288832738096 
-1.5079284743589685 
0.8059948487021098 
2.926110135508721 
4.790940619884898 
6.425292790372202 
7.876201059697361 
9.173743746657856 
10.314521217070153 
11.251869930283346 
11.660816179635166 
-4.901206890853862 
-3.8454144821512584 
-1.6562790557266565 
0.5888074612160548 
2.7354076136914807 
4.713590252401696 
6.516532340192455 
8.16445988223927 
9.676322519221795 
11.054625419704557 
12.276482853607964 
12.843588584299575 
-4.821931282331072 
-3.7812066800009907 
-1.6437417791968651 
0.5409271695156221 
2.670069650126001 
4.693614741337845 
6.6019838939433475 
8.40348524605312 
10.106248596609401 
11.709974338224242 
13.202993650859245 
13.919587112091508 
-4.684475559526276 
-3.6250146525366 
-1.4828165058290532 
0.6645748949503445 
2.7563550125146046 
4.772991104788616 
6.722608356579212 
8.619246816832566 
10.468085419885849 
12.263301600599986 
13.993302133524153 
14.840393744553428 
-4.484167190868789 
-3.37913398328274 
-1.1820635226471339 
0.9594096103345563 
3.0103225254661394 
4.981225691324786 
6.910612501265406 
8.835396978122807 
10.770279524017045 
12.706607555423368 
14.62533027324034 
15.577783707969246 
-4.219183541676183 
-3.0468107554231274 
-0.7480731554972765 
1.4270242871637884 
3.4474491062528214 
5.345104643466423 
7.194862741913304 
9.073026562159644 
11.02098918111469 
13.035820497964894 
15.087831685024408 
16.118605105276465 
-3.8948679344760304 
-2.63635178070332 
-0.18793602898740902 
2.0722277014128636 
4.088614579009079 
5.898605826187103 
7.6114807852016195 
9.357142266065672 
11.227943658211476 
13.245014532216903 
15.371023713316283 
16.454108388667617 
-3.5279102521161065 
-2.163090200002411 
0.49157097925721555 
2.903564289254433 
4.960200570894608 
6.686540479495793 
8.214738197348604 
9.730703561330705 
11.405102770262877 
13.321850695488843 
15.453681666338571 
16.563540464952922 
-3.1456843312804894 
-1.639694607650698 
1.3008010694021868 
3.9417235037642864 
6.087938089355838 
7.748642570374004 
9.06787993083016 
10.266394876767244 
11.594099542912282 
13.25024134233896 
15.28486354880447 
16.39086466014179 
-2.7580774236982015 
-1.0262598205350817 
2.3413075476786194 
5.265197339074481 
7.487470882059128 
9.06973212547983 
10.174600901222254 
11.017293240651625 
11.870127485184488 
13.046027603031034 
14.774921355339867 
15.794797943866733 
-2.2336590867931125 
0.041112533408671825 
4.079297129019091 
7.069711136295 
9.121887323580637 
10.479330975966398 
11.331764795296671 
11.839827172050153 
12.196279473547175 
12.697954879671302 
13.806360803719368 
14.581646568749726 
1.1105697690441174 
3.5134255933596785 
7.237659423115263 
9.342501530921151 
10.618463484294061 
11.420851086753917 
11.90340461277113 
12.131010765230023 
12.14310494895691 
12.012178690865928 
11.94123009968131 
11.958359572420072 
4.126989840906689 
6.258381579584588 
9.258201071622342 
10.559629013595305 
11.249346274949348 
11.670556146732366 
11.927950230046033 
12.031067649109433 
11.934419297286375 
11.54514825838959 
10.690907806113156 
10.119073906118627 
</DataArray>
</PointData>
<CellData>
</CellData>
<Points>
<DataArray type="Float64" Name="Points" NumberOfComponents="3" format="ascii">
0.0 50.0 0.0
0.0 45.4545441 0.0
0.0 40.9090919 0.0
0.0 36.363636 0.0
0.0 31.818182 0.0
0.0 27.272728 0.0
0.0 22.727272 0.0
0.0 18.181818 0.0
0.0 13.636364 0.0
0.0 9.090909 0.0
0.0 4.5454545 0.0
0.0 0.0 0.0
2.52631569 50.5263176 0.0
2.52631569 46.1435394 0.0
2.52631569 41.7607651 0.0
2.52631569 37.3779907 0.0
2.52631569 32.9952164 0.0
2.52631569 28.6124401 0.0
2.52631569 24.2296658 0.0
2.52631569 19.8468895 0.0
2.52631569 15.4641151 0.0
2.52631569 11.0813398 0.0
2.52631569 6.69856453 0.0
2.52631569 2.31578946 0.0
5.05263138 51.0526314 0.0
5.05263138 46.8325348 0.0
5.05263138 42.612442 0.0
5.05263138 38.3923454 0.0
5.05263138 34.1722488 0.0
5.05263138 29.9521523 0.0
5.05263138 25.7320576 0.0
5.05263138 21.511961 0.0
5.05263138 17.2918663 0.0
5.05263138 13.0717707 0.0
5.05263138 8.85167503 0.0
5.05263138 4.63157892 0.0
7.57894754 51.578949 0.0
7.57894754 47.5215302 0.0
7.57894754 43.4641151 0.0
7.57894754 39.4067001 0.0
7.57894754 35.3492813 0.0
7.57894754 31.2918663 0.0
7.57894754 27.2344494 0.0
7.57894754 23.1770344 0.0
7.57894754 19.1196175 0.0
7.57894754 15.0622005 0.0
7.57894754 11.0047846 0.0
7.57894754 6.94736862 0.0
10.1052628 52.1052628 0.0
10.1052628 48.2105255 0.0
10.1052628 44.3157883 0.0
10.1052628 40.421051 0.0
10.1052628 36.5263176 0.0
10.1052628 32.6315804 0.0
10.1052628 28.7368412 0.0
10.1052628 24.8421059 0.0
10.1052628 20.9473686 0.0
10.1052628 17.0526314 0.0
10.1052628 13.1578951 0.0
10.1052628 9.26315784 0.0
12.6315794 52.6315804 0.0
12.6315794 48.8995209 0.0
12.6315794 45.1674652 0.0
12.6315794 41.4354057 0.0
12.6315794 37.7033501 0.0
12.6315794 33.9712906 0.0
12.6315794 30.2392349 0.0
12.6315794 26.5071774 0.0
12.6315794 22.7751198 0.0
12.6315794 19.0430622 0.0
12.6315794 15.3110046 0.0
12.6315794 11.5789471 0.0
15.1578951 53.1578941 0.0
15.1578951 49.5885162 0.0
15.1578951 46.0191383 0.0
15.1578951 42.4497604 0.0
15.1578951 38.8803825 0.0
15.1578951 35.3110046 0.0
15.1578951 31.7416267 0.0
15.1578951 28.1722488 0.0
15.1578951 24.6028709 0.0
15.1578951 21.033493 0.0
15.1578951 17.4641151 0.0
15.1578951 13.8947372 0.0
17.6842098 53.6842117 0.0
17.6842098 50.2775116 0.0
17.6842098 46.8708153 0.0
17.6842098 43.4641151 0.0
17.6842098 40.057415 0.0
17.6842098 36.6507187 0.0
17.6842098 33.2440186 0.0
17.6842098 29.8373203 0.0
17.6842098 26.4306221 0.0
17.6842098 23.0239239 0.0
17.6842098 19.6172256 0.0
17.6842098 16.2105255 0.0
20.2105255 54.2105255 0.0
20.2105255 50.966507 0.0
20.2105255 47.7224884 0.0
20.2105255 44.4784698 0.0
20.2105255 41.2344513 0.0
20.2105255 37.9904289 0.0
20.2105255 34.7464104 0.0
20.2105255 31.5023918 0.0
20.2105255 28.2583733 0.0
20.2105255 25.0143547 0.0
20.2105255 21.7703342 0.0
20.2105255 18.5263157 0.0
22.7368412 54.7368431 0.0
22.7368412 51.6555023 0.0
22.7368412 48.5741615 0.0
22.7368412 45.4928246 0.0
22.7368412 42.4114838 0.0
22.7368412 39.330143 0.0
22.7368412 36.2488022 0.0
22.7368412 33.1674652 0.0
22.7368412 30.0861244 0.0
22.7368412 27.0047855 0.0
22.7368412 23.9234447 0.0
22.7368412 20.8421059 0.0
25.2631588 55.2631569 0.0
25.2631588 52.3444977 0.0
25.2631588 49.4258385 0.0
25.2631588 46.5071754 0.0
25.2631588 43.5885162 0.0
25.2631588 40.669857 0.0
25.2631588 37.7511978 0.0
25.2631588 34.8325348 0.0
25.2631588 31.9138756 0.0
25.2631588 28.9952145 0.0
25.2631588 26.0765553 0.0
25.2631588 23.1578941 0.0
27.7894745 55.7894745 0.0
27.7894745 53.033493 0.0
27.7894745 50.2775116 0.0
27.7894745 47.5215302 0.0
27.7894745 44.7655487 0.0
27.7894745 42.0095711 0.0
27.7894745 39.2535896 0.0
27.7894745 36.4976082 0.0
27.7894745 33.7416267 0.0
27.7894745 30.9856453 0.0
27.7894745 28.2296658 0.0
27.7894745 25.4736843 0.0
30.3157902 56.3157883 0.0
30.3157902 53.7224884 0.0
30.3157902 51.1291847 0.0