<?xml version="1.0"?>
<VTKFile type="UnstructuredGrid" version="0.1" byte_order="LittleEndian" compressor="vtkZLibDataCompressor">
<UnstructuredGrid>
<Piece NumberOfPoints="240" NumberOfCells="209">
<PointData>
<DataArray type="Float64" Name="displacement" NumberOfComponents="3" format="ascii" >
0.0 0.0  0.
0.0 0.0  0.
0.0 0.0  0.
0.0 0.0  0.
0.0 0.0  0.
0.0 0.0  0.
0.0 0.0  0.
0.0 0.0  0.
0.0 0.0  0.
0.0 0.0  0.
0.0 0.0  0.
0.0 0.0  0.
-0.27991758132977734 0.2490932512258721  0.
-0.10615476959950504 0.08616016497368882  0.
-0.05956044545040334 0.04054010208498972  0.
-0.024967668328972976 0.0329185634804471  0.
0.00017211681255303307 0.04018671790053016  0.
0.01911092587030431 0.05515708775335589  0.
0.032015842482662586 0.07309572013480342  0.
0.03892530477419846 0.09046534641257852  0.
0.03985355599676299 0.10384550352409559  0.
0.035032551342743024 0.10945890193430018  0.
0.0255702778807423 0.10320831541707291  0.
0.008729494642361427 0.0752686801954866  0.
-0.5288224547041941 0.37387785152726793  0.
-0.279171573701836 0.23385393289540002  0.
-0.14648149691008144 0.1429497414545295  0.
-0.06687706317806322 0.11293394012671049  0.
-0.009051351962087985 0.11437985422848002  0.
0.03339103129454605 0.13226831680308707  0.
0.0628769716358455 0.15768517912014895  0.
0.07988013996617409 0.18399132386105274  0.
0.0844220624351475 0.20532474050267385  0.
0.07660470349555236 0.21581939807361453  0.
0.05703122395949867 0.2090843893834744  0.
0.02596452980208648 0.17903509982554555  0.
-0.7532367570221387 0.5069054125153936  0.
-0.4663088396420656 0.38006817966653295  0.
-0.2677535931374418 0.28488157747134624  0.
-0.13215389900272753 0.2354027307654142  0.
-0.03505698174884051 0.22429289545776684  0.
0.03640426422563957 0.23664381316453903  0.
0.08689024270320027 0.261213477253348  0.
0.11809654609124229 0.28927333918371134  0.
0.130344903501134 0.3133036868851686  0.
0.12357258299983666 0.32615013028081924  0.
0.09809362840694863 0.32076340035934864  0.
0.05542242545444494 0.2910575114760309  0.
-0.9701508376767676 0.6509223385632604  0.
-0.6572653221344673 0.536797148957557  0.
-0.4098925059571297 0.4466504558872951  0.
-0.2228464495874209 0.3905904465550167  0.
-0.08244712726204582 0.3680537588619072  0.
0.022539605695410667 0.37098644763936695  0.
0.09856838010744692 0.3892136722536368  0.
0.1484811284833005 0.4135064157151311  0.
0.17319664153399988 0.4355866952876526  0.
0.17270086695000686 0.44769353154468156  0.
0.14696918413076204 0.4423460767894485  0.
0.09720424057524686 0.4127461067802338  0.
-1.186284642487123 0.8113580789262355  0.
-0.8509381985286804 0.708346857383288  0.
-0.5659877336278393 0.6265459090970933  0.
-0.33507270111120663 0.5707088314873927  0.
-0.15284160615040882 0.541768314201169  0.
-0.012020469692823485 0.5356313295449642  0.
0.09313207863881481 0.5451690714300623  0.
0.165999567375644 0.5622694672460112  0.
0.20800484250519155 0.5789215564331318  0.
0.21932572256743274 0.5873709893463744  0.
0.19964546064575364 0.5800388616761715  0.
0.14921986953433586 0.5495693213598902  0.
-1.405540431520562 0.9913704032011864  0.
-1.0486377596275516 0.8986049912555728  0.
-0.7330942961338882 0.8257564277558068  0.
-0.46547119215469673 0.7736388868125175  0.
-0.24534930471219624 0.7424016940117762  0.
-0.06916501289301867 0.729712337065086  0.
0.06702193438245736 0.7308322080617031  0.
0.1661414775109618 0.7395052017253615  0.
0.22973868256187532 0.7487933780919743  0.
0.25813369409833864 0.7515483993570062  0.
0.2508301597397698 0.740530393666231  0.
0.2071689007885769 0.7083513170406649  0.
-1.6303028095632208 1.1936370817711215  0.
-1.2521801450863284 1.110736473065055  0.
-0.9105006860649403 1.0467273843281613  0.
-0.6120184858398999 0.9998773368862403  0.
-0.358637091173805 0.9691217571767822  0.
-0.1493416590122329 0.9525895365248915  0.
0.017971999244454206 0.9470084488234721  0.
0.1452687633631384 0.9477779772608665  0.
0.23376280591475673 0.9493442295338604  0.
0.28373518440167544 0.9455789107081118  0.
0.29459186391775627 0.9299942718263106  0.
0.2650933467975083 0.8957238233670367  0.
-1.862172976312169 1.4206321417635652  0.
-1.463285253858873 1.3476155275264259  0.
-1.098604560310717 1.2922462962059675  0.
-0.7739096109406745 1.2512963172117397  0.
-0.49175308637328546 1.2227035464390839  0.
-0.25247312236544445 1.2045576911937819  0.
-0.05532107543910345 1.1943775558401963  0.
0.10066178667589454 1.1887849261793155  0.
0.2161110356556454 1.183508171211751  0.
0.29107337209268164 1.173569805245616  0.
0.32487807925382656 1.1534818021606434  0.
0.3160684992778846 1.1172935919193685  0.
-2.1022463367507758 1.6748221786918134  0.
-1.6834250502492265 1.6120070823871333  0.
-1.2982981830529503 1.56520921449001  0.
-0.9512044669413032 1.5304203586211116  0.
-0.6443710482439585 1.504962342290431  0.
-0.3785461219471165 1.486817065624926  0.
-0.15372270647266384 1.473961225516786  0.
0.030285297620354246 1.4638786243749213  0.
0.1735059461336472 1.45334030640426  0.
0.27563518836610496 1.4384315568940866  0.
0.3359019245072108 1.4147014947227976  0.
0.35288236199354317 1.3772702196812654  0.
-2.3512137798630777 1.9587439209007855  0.
-1.9137931797026702 1.906663331930377  0.
-1.5106364842539575 1.868546906550877  0.
-1.1445021083955975 1.8400826354393987  0.
-0.816761995536459 1.8183240347646732  0.
-0.5279033378185336 1.801260895913305  0.
-0.2780945758309472 1.7872414648638197  0.
-0.06758206358093821 1.774418130747741  0.
0.10316099008605661 1.7603936728835827  0.
0.23344329068773387 1.742141477193261  0.
0.3223437205774369 1.716127428467223  0.
0.3685675159749291 1.6784755163561556  0.
-2.609397937400483 2.2750258444779714  0.
-2.1552910641809353 2.2343494836792352  0.
-1.7366401197876578 2.205198350470915  0.
-1.3546780538195442 2.1832565751510997  0.
-1.0096524838868994 2.1655572949421007  0.
-0.7013304729416769 2.150254341744746  0.
-0.42957422922010613 2.136119075260681  0.
-0.1947067283917576 2.121933503462091  0.
0.002465933872951945 2.106021788485901  0.
0.16086523427014274 2.0860841586247885  0.
0.2793428855138126 2.059312716514782  0.
0.35668760009460576 2.0226252579412107  0.
-2.8767774022383126 2.6263771512245073  0.
-2.408504972859238 2.597834056048548  0.
-1.9771521123323188 2.5780930243393416  0.
-1.5826517884044669 2.562975186037696  0.
-1.2240290115359889 2.549621629294818  0.
-0.9000009025240436 2.5364733840518956  0.
-0.6097051126164295 2.5228302287755158  0.
-0.35317267801060875 2.508177621748731  0.
-0.13134661573475218 2.4915720553568725  0.
0.05431246055261372 2.4713550065718812  0.
0.20230691226750513 2.4452589922034185  0.
0.3113473919737277 2.4107296055460767  0.
-3.153081797244087 3.015577151173076  0.
-2.673682663064785 2.999881233072892  0.
-2.232699065482139 2.9901498862603497  0.
-1.8291612063714382 2.9822954850102485  0.
-1.4608864866758902 2.973581275562712  0.
-1.1252989035879373 2.962795850558955  0.
-0.8204094601765478 2.949865733928703  0.
-0.5455382143042045 2.9351168873834714  0.
-0.3014942217466427 2.918472503634899  0.
-0.09010667589904409 2.898950953557624  0.
0.08658908179575567 2.874705211562024  0.
0.22695933240686017 2.843445842992032  0.
-3.438032113117977 3.4455354544813686  0.
-2.9507605988917467 3.443352089940679  0.
-2.503377720749017 3.4443663468151486  0.
-2.0945468803042986 3.444334273985091  0.
-1.7209389180157824 3.4405543642704957  0.
-1.3785012877165221 3.432204434914773  0.
-1.0637608272865258 3.4198870580902105  0.
-0.7748088073789153 3.4048825124734  0.
-0.5118452025229211 3.388220295727413  0.
-0.276942420609875 3.369812408965017  0.
-0.0729205413091219 3.3482342667333347  0.
0.0978317476576886 3.3212569242096937  0.
-3.7319453512146317 3.919682409035978  0.
-3.239544715437001 3.931634711261135  0.
-2.7888832844516362 3.9442442663219763  0.
-2.3786760383416468 3.9524753247277995  0.
-2.004392267960836 3.95371164391194  0.
-1.6603792020177346 3.9476104550150213  0.
-1.3414614024827276 3.9355196424890324  0.
-1.0440475467243635 3.919642081367249  0.
-0.7669006396017527 3.9022549628839887  0.
-0.5117079003149341 3.8846470871275707  0.
-0.2822755120157039 3.8661242855167886  0.
-0.08238079750747533 3.844334411325979  0.
-4.036701942794982 4.442968021900351  0.
-3.5402474490408347 4.470195138000498  0.
-3.088970816899771 4.494896914736221  0.
-2.681350131983186 4.511128277092841  0.
-2.3111971175317363 4.516379595027571  0.
-1.9710391953158888 4.511479316071133  0.
-1.654155669849256 4.498700406084029  0.
-1.355240810542106 4.481007817884683  0.
-1.070996199313009 4.46162079303074  0.
-0.8009494784824436 4.44348257917832  0.
-0.5489945086904827 4.4276047678294495  0.
-0.32132301960827 4.4119772133512765  0.
-4.358612734127316 5.02656542604418  0.
-3.8548843921006855 5.070055919717602  0.
-3.4050583719545164 5.106874840253962  0.
-3.0044443602511697 5.127270936936441  0.
-2.642684933360512 5.132361091015177  0.
-2.310868230129567 5.125215251909842  0.
-2.0014039796158163 5.109311777733242  0.
-1.7079375053285746 5.0881352713071815  0.
-1.4254017519659494 5.065265177475114  0.
-1.1504410336849302 5.044496615065826  0.
-0.8823451187539332 5.029814032926723  0.
-0.6289128232391462 5.020281828173854  0.
-4.705885939851032 5.693139496796082  0.
-4.1893863505158695 5.76398652631921  0.
-3.747946277022015 5.800383762343689  0.
-3.35766015037671 5.8117707977859085  0.
-3.006023532635166 5.805664064295225  0.
-2.6838464876377293 5.788009023572101  0.
-2.383889237623565 5.763209609502579  0.
-2.0998969951564623 5.734723756137093  0.
-1.8261802392392352 5.7056526404494035  0.
-1.5575492902298336 5.679403535546523  0.
-1.2895368034671104 5.6606492422059995  0.
-1.0166342428809854 5.660604566023546  0.
-5.089428554395892 6.569671389383505  0.
-4.591135304146075 6.606328558482411  0.
-4.1554583812475006 6.600169082011768  0.
-3.769566210096977 6.5729544983071735  0.
-3.4215670914268714 6.535273706024773  0.
-3.1033577724840504 6.492773213554989  0.
-2.8085665465270644 6.448920879784464  0.
-2.5317471892133145 6.406079374047114  0.
-2.2677855261888955 6.366000750905045  0.
-2.0114423487805255 6.330064558543546  0.
-1.7570469569115978 6.2993097370950935  0.
-1.4992131098882222 6.2716620543911725  0.
</DataArray>
<DataArray type="Float64" Name="Nodal_sigma_xx" NumberOfComponents="1" format="ascii" >
-9.397680778555738 
-6.925796776885303 
-3.3472115074128936 
-1.3338329699619709 
0.27331507723558446 
1.495390528858711 
2.350736682731708 
2.823880607356667 
2.908391620999142 
2.6298422117662676 
1.9826276338521283 
1.5590710339868559 
-8.599311629251382 
-6.79520513053113 
-3.731611274781536 
-1.5381406923061753 
0.12788634745562674 
1.404946685345971 
2.3073666605987007 
2.827697278415809 
2.957536593827255 
2.7097392291911544 
2.1058155969752965 
1.7166014786680468 
-7.44774482703631 
-6.45489290031991 
-4.204771823102311 
-1.9571485244117046 
-0.18459683310495928 
1.189974173793863 
2.18810461682755 
2.8076910295704813 
3.0385714045332493 
2.878309546305892 
2.3638268318241833 
2.0266569170418736 
-6.880668854922671 
-6.090689593300001 
-4.282723548060343 
-2.2900681413825508 
-0.5089394888155988 
0.9292027294408032 
2.0141215465123365 
2.736409633277634 
3.0831474549771016 
3.045457084344526 
2.6367342260368427 
2.3433881016171867 
-6.543637241464455 
-5.824728664481933 
-4.227045114271096 
-2.461153233191606 
-0.7796600802586576 
0.666463124236769 
1.8106637582562546 
2.6253467945910476 
3.0899171707825737 
3.1872079865746006 
2.9096309139351115 
2.677104039966159 
-6.34979987239174 
-5.637942941794579 
-4.131922485306274 
-2.5284393200595483 
-0.9651707124565112 
0.4390365587634989 
1.6068542940654496 
2.4920781423199214 
3.0641315541891707 
3.297659564716661 
3.1701485510409375 
3.0134985227818962 
-6.238895885383874 
-5.512769546650255 
-4.0370339623332825 
-2.537813944785846 
-1.078256762189501 
0.2649906596490944 
1.4263872370193105 
2.356307927684377 
3.0173321850284394 
3.378250662585283 
3.4083949957856126 
3.3368199842719766 
-6.173662886450623 
-5.4282508445267466 
-3.955173434298352 
-2.5192662208837677 
-1.139823240944776 
0.1423885236444392 
1.2813522614434145 
2.234041693777872 
2.9630413797687467 
3.4353764853314552 
3.618415102474227 
3.6333819757493937 
-6.126921844091352 
-5.3644904161528615 
-3.8854207102255462 
-2.4888000273050843 
-1.1686328116095945 
0.06065566859760543 
1.172209585890915 
2.1336601809347493 
2.912216584760504 
3.477086896804815 
3.7982924872506008 
3.89418382228396 
-6.076106563393932 
-5.302421166783711 
-3.819944789150113 
-2.452220458199494 
-1.1779420749500638 
0.007110951519561676 
1.0920990091763203 
2.0553937815540273 
2.8702783999261827 
3.5098930162962256 
3.949069175258684 
4.11550062835487 
-6.00022586449062 
-5.223072346847173 
-3.746839268720742 
-2.4080685719500057 
-1.1751078616966948 
-0.029699368261139558 
1.0304540406993377 
1.992947648042116 
2.8362043838165834 
3.536536993755697 
4.072961943997223 
4.297831902221807 
-5.8786190822106725 
-5.10682204260557 
-3.6508184266752064 
-2.3490098640093606 
-1.1617848314301196 
-0.058488383987462034 
0.9752896106767879 
1.9352001754216632 
2.8028010598029796 
3.554818138469174 
4.171416140792056 
4.443791977545434 
-5.691086116839196 
-4.9330372216020795 
-3.512667245404945 
-2.2616509881344795 
-1.1334666271348486 
-0.08413926834620539 
0.9145315027980956 
1.8671353455549173 
2.7568344992882876 
3.556741150451189 
4.243090570502307 
4.555461247411911 
-5.419359998339056 
-4.6802266900202945 
-3.307936781034096 
-2.1250462990577597 
-1.077745404904556 
-0.10576412100719776 
0.8374215416147984 
1.7699722257444053 
2.6779562122528433 
3.5267440595489283 
4.28129079380524 
4.631254374713242 
-5.049198863228029 
-4.326451180070062 
-3.0052437987415255 
-1.9086702150409645 
-0.9717489010970967 
-0.11289613451770063 
0.7380585054784025 
1.6217293024352566 
2.53582749591045 
3.437246739755043 
4.269449447110857 
4.661569608970998 
-4.571310553274874 
-3.8473835254295787 
-2.5637698318122153 
-1.572398658988491 
-0.781578927098612 
-0.0815654014559201 
0.6240511390104165 
1.403859562903906 
2.2869045297130253 
3.238954564636828 
4.171541228554046 
4.62005264012496 
-3.9619713794631655 
-3.204989457234979 
-1.9316925761911174 
-1.0731570248155207 
-0.4734056098319873 
0.02164054764223783 
0.5255130668218553 
1.1257147399680503 
1.888880659416507 
2.844471836826317 
3.9074495668496 
4.444157549894339 
-3.1238021499630397 
-2.286184919540879 
-1.0388418978815084 
-0.40918593558457517 
-0.048812519331190254 
0.2146433482935286 
0.4861888440833521 
0.8471652701069494 
1.3762912198221386 
2.161602179223703 
3.2952694262001363 
3.960308110825364 
-1.2914373786065183 
-0.7461384090685659 
0.0023173968480991736 
0.2839527156927235 
0.39693795299089485 
0.45857792574388245 
0.5292603984143515 
0.6572036813831803 
0.8992452068656026 
1.3336294373431659 
2.1002714014466357 
2.5901766323358766 
0.04536360063320127 
0.24331664732404082 
0.5214792263014574 
0.6086985830964993 
0.6052617143222963 
0.5835034048210785 
0.5716122927806997 
0.5957183806406401 
0.6942739932446476 
0.9283160690529642 
1.3299634689814552 
1.5714388220238678 
</DataArray>
<DataArray type="Float64" Name="Nodal_sigma_yy" NumberOfComponents="1" format="ascii" >
-3.769295178844403 
-3.202327095960851 
-2.2526630754835395 
-1.439253813730351 
-0.6474645637283452 
0.0026160496369727337 
0.49440500237368123 
0.8086266264783801 
0.9420008375494683 
0.9128230486238733 
0.7566643471627634 
0.6516202868076066 
-2.159661956777283 
-2.2028213355660764 
-2.006657872674613 
-1.4374609801953522 
-0.7890309785366045 
-0.19640326989869444 
0.2895318316587429 
0.6429661860081244 
0.8570299272551223 
0.9451723014754942 
0.9618950056752553 
0.9629680663315324 
-0.4679848536909252 
-0.9084009028335904 
-1.4005607955282842 
-1.305970885213014 
-0.9373280430712341 
-0.47946574751160387 
-0.025347563457409156 
0.3805855549303179 
0.7212353314516373 
1.0001248178571247 
1.2593966722379704 
1.3930606751159669 
-0.327984751102227 
-0.49828696702291764 
-0.8385747341605058 
-0.9985761719638511 
-0.8626746136208506 
-0.5518436221667555 
-0.16027668903963757 
0.25457041665525637 
0.6636903469308302 
1.0583288083141624 
1.4381204046540716 
1.6241997507937995 
-0.2555710181712902 
-0.33603842232056097 
-0.5268340005595216 
-0.6797798280031637 
-0.6619230423235292 
-0.46401757683296374 
-0.14106171474337859 
0.2569214981545842 
0.6964673411964708 
1.1587436020423176 
1.6292616489871086 
1.8645909008625834 
-0.23757900117201752 
-0.2698054040772081 
-0.3560407338703277 
-0.43628519118981957 
-0.42501751818841504 
-0.27953860412146736 
-0.005743362359134432 
0.3687802387728556 
0.8172628256564203 
1.3197458150307795 
1.8601803253043632 
2.137910363083515 
-0.23453411847765285 
-0.24210355899948938 
-0.2582598579858177 
-0.2591791004199997 
-0.2038938078559992 
-0.055284482463337996 
0.2013557451808369 
0.5613485767236287 
1.0112891022633086 
1.5374066778839084 
2.1283598292236086 
2.4387916777248027 
-0.23631067121587765 
-0.22843668986486168 
-0.19522987614761161 
-0.12648258646290383 
-0.01110908786945327 
0.17221024966136006 
0.44062602726090694 
0.8017087061634953 
1.2547925358917658 
1.7951965915892831 
2.418580212480087 
2.750616409842765 
-0.2385002173891429 
-0.21831632752785096 
-0.14641063932844003 
-0.019196911482321367 
0.15648131146445587 
0.3871113097044635 
0.6846719431364054 
1.060393968707957 
1.5215196503559962 
2.071294617673124 
2.711724802246697 
3.054900604210341 
-0.23937204570793705 
-0.20713288358231224 
-0.10109942947967016 
0.07601117889230076 
0.3067259432359697 
0.5861312158164615 
0.919280101986288 
1.3165908574627219 
1.788966491398119 
2.344781040321946 
2.9902022575359024 
3.336015865823045 
-0.23808538925944606 
-0.1928731328481611 
-0.05391449973545134 
0.16770720311947984 
0.4477016489813627 
0.7724349395306483 
1.140339447032275 
1.5594779805339596 
2.0422250236070782 
2.6000332273669153 
3.241242801936635 
3.583543018978669 
-0.23423598531518786 
-0.17487089141528336 
-0.0025707586080736117 
0.26096758246908563 
0.5862622485048592 
0.9520695965772965 
1.3504896295197373 
1.7869437432459878 
2.2749096286865624 
2.8286022679460268 
3.4580118142297813 
3.792544541704318 
-0.2278318979970806 
-0.15347945496234552 
0.053147510591040434 
0.35843731510612786 
0.7278399202521881 
1.1321511242840994 
1.556557478703239 
2.003492063349176 
2.488088284662528 
3.028750876969413 
3.6386386144531224 
3.9620078698342134 
-0.21959130182642028 
-0.12992000444504262 
0.11246988448408157 
0.46199430502796196 
0.8775264074950295 
1.320437037310113 
1.7679289510942673 
2.2182852264546535 
2.688442676604838 
3.203594469500413 
3.7837552091788615 
4.091872888191537 
-0.21027498823645357 
-0.10517316623505546 
0.17698921026210157 
0.5780362115989299 
1.0448614145010127 
1.5279549145520286 
1.996342694485108 
2.4435240384477614 
2.886540976477356 
3.3586966963487876 
3.8931577052288144 
4.179431624247428 
-0.20332630674703617 
-0.07572376072598726 
0.26272064388515726 
0.7328951668250653 
1.2600997094357536 
1.7808695032244009 
2.2615808725975155 
2.6938703956824 
3.0939516425581193 
3.5002820208968 
3.961404057589197 
4.21180089357909 
-0.1747438604041755 
-0.011721832615969971 
0.43418178015659475 
1.0233061485246553 
1.616646053316716 
2.15476575764074 
2.61648644313109 
3.0005420477892115 
3.322186827932617 
3.6235694807396093 
3.9730985403954246 
4.169532225304218 
-0.18423853479008148 
0.19822316649353594 
0.9851838418953984 
1.7374872474248138 
2.360819114389477 
2.8456373859715107 
3.2080776758225245 
3.4667413167261607 
3.63727027187917 
3.7416093387477214 
3.8488733687198247 
3.9168130998952213 
1.0220281952829415 
1.7089695517742114 
2.8488724576626216 
3.5853966839032303 
4.031151977373606 
4.2704243060264755 
4.364035574983334 
4.351934021273801 
4.256960127058798 
4.084679069699181 
3.832454705113175 
3.686170614312213 
2.264309633777282 
3.0569479513138313 
4.281357324938478 
4.917158758882895 
5.188407851857283 
5.235626154749621 
5.138175022194263 
4.944151951955865 
4.682393473839154 
4.364795874139385 
3.929289676073191 
3.666194949498827 
</DataArray>
<DataArray type="Float64" Name="Nodal_sigma_xy" NumberOfComponents="1" format="ascii" >
1.4336236315630884 
0.9475314508981352 
0.31000766399976004 
0.19990739103736302 
0.359916101794895 
0.6342896881292475 
0.9496043500622502 
1.2436801294512245 
1.456043008748147 
1.5194666088500555 
1.337018591663747 
1.1690525273686356 
0.5269424000300393 
0.5506950272751588 
0.4746058916572323 
0.39993380823401486 
0.5219384811579741 
0.7517192030492583 
1.0245982509030465 
1.2848212763532807 
1.4781301754987823 
1.5452593463808482 
1.4235832042576106 
1.3077970843942095 
-0.6352720403762495 
-0.10528938527734816 
0.5242046217445173 
0.6694905239321817 
0.7925554311040931 
0.9722554393792175 
1.185389461327428 
1.395704400763633 
1.5632119467295118 
1.6446876735370277 
1.6121571219764634 
1.566067820718354 
-0.9945613228222676 
-0.5127776083332832 
0.26035479374867865 
0.6933518317138208 
0.9393449725644685 
1.1459771417876852 
1.3504754319508199 
1.5461645960348656 
1.7112184134773076 
1.816984619378388 
1.8350052814514224 
1.818835302400174 
-1.141913212192615 
-0.7454498836379634 
-0.008837820061908065 
0.5645943995811956 
0.958546674040766 
1.247838135512072 
1.4900688411066216 
1.7046863569455413 
1.8888914874025873 
2.0270767286409037 
2.0929762503308167 
2.103886179361653 
-1.2042824347260077 
-0.8764511163086712 
-0.21270916813427437 
0.402072832566001 
0.8957818109587744 
1.279141887429283 
1.5877305934426313 
1.848414412844435 
2.07155613380377 
2.253473294187927 
2.376220284172936 
2.4195742523237174 
-1.2300502334528551 
-0.9464267451121844 
-0.34670543995012243 
0.26353551830913213 
0.8077464755447359 
1.264529296127985 
1.6442288764452908 
1.9655780745827847 
2.242466930842951 
2.4792788942921664 
2.668383792933621 
2.7492009617803292 
-1.2366149800180175 
-0.9767813992398244 
-0.4200825006345049 
0.17077513524771548 
0.7326969780078032 
1.2352536585451266 
1.6736325948740005 
2.0559440092768195 
2.3927823925579195 
2.6913250385313696 
2.951996193197472 
3.07240345126495 
-1.2291411895300994 
-0.9777413147142748 
-0.44261771362237845 
0.1293050276984768 
0.6913943319473917 
1.2163338263997279 
1.69452810968462 
2.127464189994172 
2.521016146198119 
2.8812630825446637 
3.2124411916917257 
3.3711333184233254 
-1.2078276735890738 
-0.9534465786646134 
-0.42125225927389176 
0.13854004884631516 
0.69346144611583 
1.2241133927523986 
1.7232538374151665 
2.191134071832358 
2.630799760460829 
3.045808861104782 
3.4402874502223666 
3.632973204549046 
-1.170991210076265 
-0.9049431884566597 
-0.3600553111406246 
0.19662033862159806 
0.7429493718453127 
1.268260985406071 
1.771729467030223 
2.2571248366149836 
2.7278893730699805 
3.1855684353312106 
3.631680912828103 
3.852133602155317 
-1.1166028355575892 
-0.832038505668515 
-0.2610474210991973 
0.3024561166179158 
0.8422143438071326 
1.3549787075767332 
1.8483095237933427 
2.3333956530639437 
2.8178558281825685 
3.303069991069937 
3.7869939103140533 
4.02832560911818 
-1.0433932151550707 
-0.7346251364448504 
-0.12512163221320566 
0.4564537344991947 
0.9943718556583728 
1.4901227588639325 
1.9601477985084568 
2.426377020377851 
2.9051045357253473 
3.4008051630188922 
3.9083615158375977 
4.164067851248026 
-0.9518820375001837 
-0.6136151124092617 
0.047397068314611795 
0.660710210952375 
1.204549220713401 
1.6815585893752008 
2.116080082952606 
2.543138772173653 
2.9932690121238394 
3.479696757474378 
3.9966852156098422 
4.2611007267957275 
-0.844996554514998 
-0.4707428367234955 
0.2577730701758386 
0.9195650957509389 
1.479769904229459 
1.9393797785500708 
2.3284829751617497 
2.694521648539679 
3.0871619130385843 
3.5382554863873437 
4.048284743776902 
4.315990313240995 
-0.7261479873632946 
-0.3042141317200261 
0.5149029736687497 
1.2427516058006969 
1.8274096540049611 
2.2709133693251937 
2.608976384032747 
2.895920943668125 
3.197100533495641 
3.573476130726638 
4.050746296691261 
4.314427860822169 
-0.5871769729476239 
-0.0905157448614744 
0.8577888769912274 
1.6565900578949395 
2.2511087505828966 
2.666705480265972 
2.9486998202828207 
3.150372119450663 
3.3365401210799974 
3.5883604668504114 
3.980573986974521 
4.219221379674279 
-0.3504214695703154 
0.2968527331274327 
1.4164777177042338 
2.2072364595461247 
2.733703028853248 
3.072444007132131 
3.2796672063838255 
3.398474516363711 
3.4732937216490756 
3.569517625863969 
3.8054657679314605 
3.977742731406635 
0.7704871229507924 
1.397131351180223 
2.353986080947049 
2.8674484566166027 
3.1569332468690794 
3.3248438750383773 
3.4180447423835 
3.456985792939137 
3.451660339931947 
3.4135196100730067 
3.373207032090021 
3.3582918356992915 
1.7315253032065407 
2.2338790666852866 
2.9335429378372715 
3.211457597795924 
3.3284683130719253 
3.382628925270079 
3.4067967224273 
3.4064925066457334 
3.371916654286733 
3.2798743607648335 
3.0591844808464383 
2.902678605822162 
</DataArray>
</PointData>
<CellData>
</CellData>
<Points>
<DataArray type="Float64" Name="Points" NumberOfComponents="3" format="ascii">
0.0 50.0 0.0
0.0 45.4545441 0.0
0.0 40.9090919 0.0
0.0 36.363636 0.0
0.0 31.818182 0.0
0.0 27.272728 0.0
0.0 22.727272 0.0
0.0 18.181818 0.0
0.0 13.636364 0.0
0.0 9.090909 0.0
0.0 4.5454545 0.0
0.0 0.0 0.0
2.52631569 50.5263176 0.0
2.52631569 46.1435394 0.0
2.52631569 41.7607651 0.0
2.52631569 37.3779907 0.0
2.52631569 32.9952164 0.0
2.52631569 28.6124401 0.0
2.52631569 24.2296658 0.0
2.52631569 19.8468895 0.0
2.52631569 15.4641151 0.0
2.52631569 11.0813398 0.0
2.52631569 6.69856453 0.0
2.52631569 2.31578946 0.0
5.05263138 51.0526314 0.0
5.05263138 46.8325348 0.0
5.05263138 42.612442 0.0
5.05263138 38.3923454 0.0
5.05263138 34.1722488 0.0
5.05263138 29.9521523 0.0
5.05263138 25.7320576 0.0
5.05263138 21.511961 0.0
5.05263138 17.2918663 0.0
5.05263138 13.0717707 0.0
5.05263138 8.85167503 0.0
5.05263138 4.63157892 0.0
7.57894754 51.578949 0.0
7.57894754 47.5215302 0.0
7.57894754 43.4641151 0.0
7.57894754 39.4067001 0.0
7.57894754 35.3492813 0.0
7.57894754 31.2918663 0.0
7.57894754 27.2344494 0.0
7.57894754 23.1770344 0.0
7.57894754 19.1196175 0.0
7.57894754 15.0622005 0.0
7.57894754 11.0047846 0.0
7.57894754 6.94736862 0.0
10.1052628 52.1052628 0.0
10.1052628 48.2105255 0.0
10.1052628 44.3157883 0.0
10.1052628 40.421051 0.0
10.1052628 36.5263176 0.0
10.1052628 32.6315804 0.0
10.1052628 28.7368412 0.0
10.1052628 24.8421059 0.0
10.1052628 20.9473686 0.0
10.1052628 17.0526314 0.0
10.1052628 13.1578951 0.0
10.1052628 9.26315784 0.0
12.6315794 52.6315804 0.0
12.6315794 48.8995209 0.0
12.6315794 45.1674652 0.0
12.6315794 41.4354057 0.0
12.6315794 37.7033501 0.0
12.6315794 33.9712906 0.0
12.6315794 30.2392349 0.0
12.6315794 26.5071774 0.0
12.6315794 22.7751198 0.0
12.6315794 19.0430622 0.0
12.6315794 15.3110046 0.0
12.6315794 11.5789471 0.0
15.1578951 53.1578941 0.0
15.1578951 49.5885162 0.0
15.1578951 46.0191383 0.0
15.1578951 42.4497604 0.0
15.1578951 38.8803825 0.0
15.1578951 35.3110046 0.0
15.1578951 31.7416267 0.0
15.1578951 28.1722488 0.0
15.1578951 24.6028709 0.0
15.1578951 21.033493 0.0
15.1578951 17.4641151 0.0
15.1578951 13.8947372 0.0
17.6842098 53.6842117 0.0
17.6842098 50.2775116 0.0
17.6842098 46.8708153 0.0
17.6842098 43.4641151 0.0
17.6842098 40.057415 0.0
17.6842098 36.6507187 0.0
17.6842098 33.2440186 0.0
17.6842098 29.8373203 0.0
17.6842098 26.4306221 0.0
17.6842098 23.0239239 0.0
17.6842098 19.6172256 0.0
17.6842098 16.2105255 0.0
20.2105255 54.2105255 0.0
20.2105255 50.966507 0.0
20.2105255 47.7224884 0.0
20.2105255 44.4784698 0.0
20.2105255 41.2344513 0.0
20.2105255 37.9904289 0.0
20.2105255 34.7464104 0.0
20.2105255 31.5023918 0.0
20.2105255 28.2583733 0.0
20.2105255 25.0143547 0.0
20.2105255 21.7703342 0.0
20.2105255 18.5263157 0.0
22.7368412 54.7368431 0.0
22.7368412 51.6555023 0.0
22.7368412 48.5741615 0.0
22.7368412 45.4928246 0.0
22.7368412 42.4114838 0.0
22.7368412 39.330143 0.0
22.7368412 36.2488022 0.0
22.7368412 33.1674652 0.0
22.7368412 30.0861244 0.0
22.7368412 27.0047855 0.0
22.7368412 23.9234447 0.0
22.7368412 20.8421059 0.0
25.2631588 55.2631569 0.0
25.2631588 52.3444977 0.0
25.2631588 49.4258385 0.0
25.2631588 46.5071754 0.0
25.2631588 43.5885162 0.0
25.2631588 40.669857 0.0
25.2631588 37.7511978 0.0
25.2631588 34.8325348 0.0
25.2631588 31.9138756 0.0
25.2631588 28.9952145 0.0
25.2631588 26.0765553 0.0
25.2631588 23.1578941 0.0
27.7894745 55.7894745 0.0
27.7894745 53.033493 0.0
27.7894745 50.2775116 0.0
27.7894745 47.5215302 0.0
27.7894745 44.7655487 0.0
27.7894745 42.0095711 0.0
27.7894745 39.2535896 0.0
27.7894745 36.4976082 0.0
27.7894745 33.7416267 0.0
27.7894745 30.9856453 0.0
27.7894745 28.2296658 0.0
27.7894745 25.4736843 0.0
30.3157902 56.3157883 0.0
30.3157902 53.7224884 0.0
30.3157902 51.1291847 0.0
30.3157902 48.5358849 0.0
30.3157902 45.942585 0.0
30.3157902 43.3492813 0.0
30.3157902 40.7559814 0.0
30.3157902 38.1626778 0.0
30.3157902 35.5693779 0.0
30.3157902 32.976078 0.0
30.3157902 30.3827744 0.0
30.3157902 27.7894745 0.0
32.8421059 56.8421059 0.0
32.8421059 54.4114838 0.0
32.8421059 51.9808617 0.0
32.8421059 49.5502396 0.0
32.8421059 47.1196175 0.0
32.8421059 44.6889954 0.0
32.8421059 42.2583733 0.0
32.8421059 39.8277512 0.0
32.8421059 37.3971291 0.0
32.8421059 34.966507 0.0
32.8421059 32.5358849 0.0
32.8421059 30.1052628 0.0
35.3684196 57.3684196 0.0
35.3684196 55.1004791 0.0
35.3684196 52.8325348 0.0
35.3684196 50.5645943 0.0
35.3684196 48.2966499 0.0
35.3684196 46.0287094 0.0
35.3684196 43.7607651 0.0
35.3684196 41.4928246 0.0
35.3684196 39.2248802 0.0
35.3684196 36.9569397 0.0
35.3684196 34.6889954 0.0
35.3684196 32.421051 0.0
37.8947372 57.8947372 0.0
37.8947372 55.7894745 0.0
37.8947372 53.6842117 0.0
37.8947372 51.578949 0.0
37.8947372 49.4736824 0.0
37.8947372 47.3684196 0.0
37.8947372 45.2631569 0.0
37.8947372 43.1578941 0.0
37.8947372 41.0526314 0.0
37.8947372 38.9473686 0.0
37.8947372 36.8421059 0.0
37.8947372 34.7368431 0.0
40.421051 58.421051 0.0
40.421051 56.4784698 0.0
40.421051 54.5358849 0.0