<?xml version="1.0"?>
<VTKFile type="UnstructuredGrid" version="0.1" byte_order="LittleEndian" compressor="vtkZLibDataCompressor">
<UnstructuredGrid>
<Piece NumberOfPoints="240" NumberOfCells="209">
<PointData>
<DataArray type="Float64" Name="displacement" NumberOfComponents="3" format="ascii" >
0.0 0.0  0.
0.0 0.0  0.
0.0 0.0  0.
0.0 0.0  0.
0.0 0.0  0.
0.0 0.0  0.
0.0 0.0  0.
0.0 0.0  0.
0.0 0.0  0.
0.0 0.0  0.
0.0 0.0  0.
0.0 0.0  0.
-0.2596410502983093 0.1674873466443979  0.
-0.09671384607100697 0.025932679427817924  0.
-0.051460875318920914 -0.0033736637060044943  0.
-0.018024569521329737 0.00026858463329625646  0.
0.006171131216869178 0.01573466018865774  0.
0.024125979176549732 0.03696560942134222  0.
0.03608390836833998 0.06002665018969607  0.
0.042213003093374814 0.08193445252301577  0.
0.042792482991149565 0.09980305479244017  0.
0.038622240169169 0.1108076942821634  0.
0.03157745086884877 0.11284560014675211  0.
0.024041748932201075 0.1049102309978443  0.
-0.5005816980339605 0.24554960718729618  0.
-0.2524283756010363 0.1252656868561038  0.
-0.12440803015491475 0.05687503074458622  0.
-0.0484289449321968 0.04567990416460886  0.
0.006364808579029838 0.061929009082942216  0.
0.046216079691519696 0.09165824889753717  0.
0.07347904978278949 0.12707939499934212  0.
0.088734985806431 0.16249499224685074  0.
0.09238658674470487 0.19295438296741987  0.
0.08543227653017757 0.2138719856143483  0.
0.07041520415496086 0.22154999241321433  0.
0.052485676116929815 0.21526071600247512  0.
-0.719736756269633 0.34259387862426754  0.
-0.4247907125717142 0.23600581287513844  0.
-0.2289033384052615 0.1629777933818257  0.
-0.09882727934122396 0.13491685733669345  0.
-0.007037523481300173 0.14247423278164023  0.
0.059879645091554565 0.17074719826251486  0.
0.10664466983947259 0.2093397606127812  0.
0.13500954375176782 0.2505206323012839  0.
0.14564426381227255 0.28779518897539474  0.
0.1394731833980193 0.3153186814734964  0.
0.11897134438899037 0.32817989394632785  0.
0.08996753356321277 0.3239438550386168  0.
-0.9305739626967133 0.45834782279160197  0.
-0.6031975967294366 0.3650006902857149  0.
-0.3550447224584986 0.2957451706291516  0.
-0.17328174048523903 0.2604628071707702  0.
-0.03965184546100308 0.2575598534327559  0.
0.05906684583140652 0.2784717052332693  0.
0.1299026852618055 0.3133586103892271  0.
0.17586181244950652 0.3537467561438905  0.
0.1981437246973625 0.39226376328805357  0.
0.19757700978139855 0.422230645203109  0.
0.17606294544405532 0.43769419015939287  0.
0.1384970260323052 0.43425186797272236  0.
-1.1386359122820213 0.5957794874571671  0.
-0.7854178435928619 0.5140307973941254  0.
-0.4967243803732134 0.45178998916218477  0.
-0.269750069293339 0.41496395507782735  0.
-0.09449787754340137 0.40463063497700114  0.
0.039061731336215634 0.4165726688659879  0.
0.13791519298633603 0.4437871041094444  0.
0.20588962126659482 0.478623214384307  0.
0.244683417895254 0.513720473088859  0.
0.25509061993126536 0.5420888172408904  0.
0.2382737815558575 0.5571119634363358  0.
0.19744384501556844 0.5528529399185962  0.
-1.3472562436495996 0.7565334193788604  0.
-0.9717322432358773 0.6852849075247263  0.
-0.6507633475950348 0.630772305170466  0.
-0.38565729336333365 0.5956302247877132  0.
-0.1719068518879244 0.581030476708631  0.
-0.0031156463945927605 0.585121598778221  0.
0.1262761972392774 0.6034586137658795  0.
0.21994389374371737 0.6301214773274794  0.
0.2797754940432516 0.6585916129183551  0.
0.30650705257396527 0.6821775193689756  0.
0.30062343616249343 0.6941300565089931  0.
0.2635888176506152 0.6877070992447071  0.
-1.5584690713153349 0.9421825648883728  0.
-1.1631532449500595 0.880733423580351  0.
-0.815861217678506 0.83386974976148  0.
-0.5190434239143884 0.8019994776958408  0.
-0.2712154454082005 0.7856085508815143  0.
-0.06885185577386957 0.7838132822734657  0.
0.09178969756738549 0.7939351601347602  0.
0.2135697205581261 0.8117699014453413  0.
0.29811837977300293 0.8320761905560408  0.
0.3459911414361884 0.8489682908689938  0.
0.3571268114697238 0.856106516837513  0.
0.3315766463877229 0.8467031489073649  0.
-1.7735779792246165 1.1543075288690154  0.
-1.3607633819413874 1.1022934162589124  0.
-0.9917495590242823 1.0628170382523385  0.
-0.6687589741496681 1.0349546644325054  0.
-0.3916176942865669 1.0184733961645498  0.
-0.1586262697089759 1.012768791600842  0.
0.032379867882076245 1.0162127050483962  0.
0.18322196654581702 1.0259596480775346  0.
0.29496327762597097 1.0380625103133778  0.
0.36782524851791537 1.0476986806326536  0.
0.4013192353791671 1.0493398984365092  0.
0.3945490871318299 1.0367670733804977  0.
-1.9933864833779507 1.3945595038889589  0.
-1.565490017294003 1.3518601795159382  0.
-1.1786574090449777 1.3195634599227533  0.
-0.8343094492239996 1.2960559942187129  0.
-0.5325385107946701 1.2806110633391217  0.
-0.27255124277497106 1.2726667485816319  0.
-0.05325938822106342 1.2712020168362062  0.
0.1262226183176608 1.2743488345670708  0.
0.26629048915769354 1.27926880681336  0.
0.36673587920281137 1.2822181405075737  0.
0.42672821997972854 1.2786656227782849  0.
0.44484822274701896 1.2633308015623426  0.
-2.218297311415857 1.664652128336214  0.
-1.7780230575030167 1.631309673228108  0.
-1.3769857618194938 1.6061070622938898  0.
-1.0156259668464502 1.5871668137716672  0.
-0.6937244827007663 1.5735207286219657  0.
-0.41070586435774 1.5646422566303402  0.
-0.16602619582861278 1.559915887188191  0.
0.04054101742982554 1.5581859842867947  0.
0.2087865434888397 1.5575019405333779  0.
0.33805562723573407 1.5550761984197632  0.
0.4272333906730346 1.5473648035558358  0.
0.47467769091477036 1.5301392183767353  0.
-2.448367738186877 1.9663251153277717  0.
-1.998774829377264 1.9424679218214789  0.
-1.5870995389726923 1.924401625116959  0.
-1.2128433200379871 1.9102348679633374  0.
-0.8751834497077888 1.8989458983224936  0.
-0.5732896604997111 1.8901161773033863  0.
-0.30668847482252004 1.883490497721923  0.
-0.07548014556117567 1.8784996222906503  0.
0.11967742181019364 1.8739183867635087  0.
0.2777161677631333 1.8677543291092786  0.
0.39726492176447514 1.8573191916951872  0.
0.4766144732483942 1.8393492854912414  0.
-2.6833556986775178 2.3012975013873427  0.
-2.2278538637340968 2.287071320029745  0.
-1.8091816683576842 2.2762966590426124  0.
-1.4260895179204267 2.267166492050552  0.
-1.0770425066958653 2.2586968398085063  0.
-0.7606306881444336 2.2506434262559294  0.
-0.47604686829623377 2.2431400502540244  0.
-0.2233673075672345 2.2361916045912293  0.
-0.0035037065643003136 2.229233037011773  0.
0.18211058375575478 2.220940012427664  0.
0.33183067552888373 2.2093038260973517  0.
0.44390124274711074 2.191822608253067  0.
-2.9228178178852935 2.671236360117907  0.
-2.4650554233904014 2.666743305448257  0.
-2.043111641338463 2.663508865630361  0.
-1.6552873511860933 2.6597577961737215  0.
-1.29934234891461 2.654539256918606  0.
-0.9730690596310819 2.6477998808585537  0.
-0.6749583327807073 2.6400979823222634  0.
-0.4046804418148437 2.6320707319443954  0.
-0.16315148054480252 2.623856574718319  0.
0.047875023485272575 2.6147580900248157  0.
0.2263941904500412 2.603292840254215  0.
0.3705025105690363 2.587473367907333  0.
-3.1662994237315534 3.077794835584565  0.
-2.709904075883545 3.0830624105715287  0.
-2.288385313346484 3.0876723665764922  0.
-1.8999760264195862 3.0896978576818808  0.
-1.5417970959165601 3.08813106422947  0.
-1.2107068245445725 3.0830946720196204  0.
-0.9041827361321337 3.075562228381239  0.
-0.6210309562096298 3.066854541177527  0.
-0.36176988635321716 3.057959782820359  0.
-0.12837051051377613 3.0489092409232335  0.
0.07663781629515609 3.038670535343519  0.
0.25095437631047535 3.0255454876747807  0.
-3.4137674222430645 3.522909314842617  0.
-2.9618157422646623 3.5378654279134825  0.
-2.5441535280176963 3.550639196765299  0.
-2.1592473955699476 3.5587136475799364  0.
-1.8035981249256057 3.5610195313248765  0.
-1.4730791264530034 3.557848477745926  0.
-1.1639748319119658 3.5505712483694256  0.
-0.8738109765568041 3.5411286095189007  0.
-0.6020022508719801 3.531455658471819  0.
-0.3502708489405638 3.5226471055675193  0.
-0.12187010503737426 3.5142682302627613  0.
0.08003985516485945 3.5046774755783705  0.
-3.6662690153253497 4.009511156378378  0.
-3.2204909030049507 4.034346431036316  0.
-2.8095562221333727 4.055261144500806  0.
-2.432016011888241 4.069143762869324  0.
-2.0835649228057402 4.074762778024248  0.
-1.758997825170375 4.072958691804898  0.
-1.4535229515314503 4.0655688073845475  0.
-1.163313402563892 4.054986056325424  0.
-0.8860849714338651 4.043848198934527  0.
-0.6218635275706726 4.034556257883499  0.
-0.3740933026170142 4.027939475983565  0.
-0.14766729835417441 4.022661139424313  0.
-3.927939229784885 4.544974652486117  0.
-3.4868498051527563 4.579378053832299  0.
-3.084679987219951 4.608201757484778  0.
-2.7184327160722597 4.62525504393805  0.
-2.3812984594945434 4.631329825328818  0.
-2.067239557296254 4.628562842564107  0.
-1.7709033618774193 4.619465983721454  0.
-1.487627973743748 4.606686320303771  0.
-1.213610708052054 4.593081237944099  0.
-0.946401475470758 4.581780327269822  0.
-0.6858893510976933 4.575966644578426  0.
-0.4386158223928005 4.5748355275703245  0.
-4.204756871030978 5.144147953663507  0.
-3.7636763097836505 5.195623723509912  0.
-3.375519512375143 5.22382768157134  0.
-3.023853952006465 5.23473540511018  0.
-2.7004093171074537 5.233271955610979  0.
-2.399066098703823 5.223452513561213  0.
-2.114827519969244 5.208357394790007  0.
-1.8431558882337518 5.1905247483351316  0.
-1.579723010285279 5.172368655429603  0.
-1.3204453073885032 5.156684788544255  0.
-1.0617800850109198 5.147434275581835  0.
-0.8000187579360813 5.153287967538124  0.
-4.502246046980444 5.899844378085792  0.
-4.081666165985437 5.9243923600947435  0.
-3.7064650015955793 5.921383251717075  0.
-3.366651756786102 5.904517554292402  0.
-3.0538634405445437 5.880399399258257  0.
-2.7626714081060197 5.852643099585796  0.
-2.4888084493938374 5.82362113768608  0.
-2.228501582771511 5.795089124594871  0.
-1.978025908187117 5.768451124232683  0.
-1.7333658213254992 5.7448837262400625  0.
-1.4899812109029174 5.725348580141389  0.
-1.2431647191068549 5.709003509296662  0.
</DataArray>
<DataArray type="Float64" Name="Nodal_sigma_xx" NumberOfComponents="1" format="ascii" >
-9.658822410401807 
-7.132920909426642 
-3.446242864481305 
-1.3573775487916035 
0.27598920139769917 
1.4957668148812142 
2.3316219274066237 
2.783537491929705 
2.86994786982587 
2.654990254548096 
2.2623388375215963 
2.0404953266576205 
-8.98138011890512 
-7.0531907166824315 
-3.8102418977935257 
-1.5390542933463578 
0.15364984525876998 
1.4280185590566201 
2.3112472469876035 
2.809670291942025 
2.9368803954245317 
2.7442840306354808 
2.347131030771778 
2.116497379182521 
-7.955174088627107 
-6.786730937941499 
-4.286980162769328 
-1.9352899555636396 
-0.12559257763464965 
1.2513943611806786 
2.2341258504236006 
2.832640630229619 
3.053628780409247 
2.9261557037487442 
2.536039165952839 
2.290928420828503 
-7.361817590763959 
-6.438970562928566 
-4.410631876834987 
-2.286780818034074 
-0.4455745341586867 
1.0104810354190292 
2.090607164597781 
2.7976362570261455 
3.1312271544930974 
3.102298897620102 
2.7567423982424524 
2.5135934037100807 
-6.945569432146694 
-6.141664863749885 
-4.386548565079315 
-2.498204248641431 
-0.7399276196553738 
0.7436294377412156 
1.8992406507727777 
2.7097818045484283 
3.163353249944276 
3.2543345436657605 
2.994936052471079 
2.780784757632021 
-6.646356834782833 
-5.893555182419622 
-4.298711362920285 
-2.6039218076835207 
-0.9654169301807253 
0.4898645870271876 
1.6861202971221663 
2.5819701196573206 
3.151188184889294 
3.3733697044626956 
3.2355196980533094 
3.0755880970565626 
-6.417482534605189 
-5.688066811049103 
-4.188403611950378 
-2.639395763511261 
-1.1214881010566837 
0.2748687593117972 
1.4768070620987317 
2.4322551533497805 
3.1029019193986414 
3.45676734870956 
3.464156066734813 
3.377606762223511 
-6.227864987571239 
-5.5115414711529365 
-4.073324181834014 
-2.6319190916934683 
-1.2204780343872124 
0.10576435492329674 
1.2890758398551247 
2.278448478122561 
3.030640316108605 
3.507034365176931 
3.669197896247666 
3.666785413656333 
-6.053631908320415 
-5.348861285196556 
-3.9576171700609772 
-2.598617776913665 
-1.2770991687713145 
-0.020834606287497004 
1.1304013859674844 
2.133446162002016 
2.9464673305531246 
3.52966389720098 
3.842647821250492 
3.9263757079466486 
-5.874763919897855 
-5.184552986619265 
-3.837842507811216 
-2.5479054242206307 
-1.3036102394668603 
-0.1130494105701954 
1.0002435308050157 
2.0031962344644096 
2.8589794227013012 
3.530442851613492 
3.9799669288423973 
4.1444478209077955 
-5.673227656528892 
-5.003060348575173 
-3.70597965204278 
-2.4814018527422874 
-1.308117862879188 
-0.18001082638661214 
0.8928430630123269 
1.88702157955067 
2.771489058637745 
3.513101813388798 
4.079006868817 
4.313954564090526 
-5.432309879669864 
-4.7887170912303825 
-3.550688655075824 
-2.3951797177701915 
-1.2940577501196007 
-0.22970254118402664 
0.7995238796498054 
1.7787129138510887 
2.681525280413558 
3.47774053225962 
4.138522957617365 
4.4316333534485235 
-5.136853406022821 
-4.525831072839256 
-3.357491257779198 
-2.2799880730481767 
-1.2596208893767287 
-0.2674550189138949 
0.7103601416436709 
1.6674926550583056 
2.580731376347904 
3.419755257381801 
4.156475220537212 
4.496108281445341 
-4.77436190228747 
-4.199032217695811 
-3.108288813847513 
-2.120481560919054 
-1.1963502287243615 
-0.29398391907704086 
0.6158120128492534 
1.5384929141887205 
2.454168704979117 
3.328384370939918 
4.127885940158286 
4.5053341536686276 
-4.336496603319539 
-3.7937847971306815 
-2.780555273146226 
-1.893954904646825 
-1.0869904760696592 
-0.3018466891508288 
0.5100702017772016 
1.3734653541148623 
2.278193086435188 
3.1833455533993784 
4.041252008539819 
4.452993458581297 
-3.8200342653961563 
-3.295364759842342 
-2.345919139261727 
-1.5704098005924219 
-0.9045816451214799 
-0.27132058472715676 
0.3990742418004709 
1.1563776476048562 
2.017492887643747 
2.947036806531047 
3.8710582043858768 
4.321576215549653 
-3.214094949414503 
-2.681652092991048 
-1.7691655363343783 
-1.11696302728428 
-0.6201870211147051 
-0.17241823377643684 
0.3098162617348235 
0.8949689026332355 
1.6356820291672256 
2.5494756128838088 
3.557989875771455 
4.06735394610378 
-2.463034312992603 
-1.8802089539550613 
-1.0006092232250858 
-0.5299321070457583 
-0.23076493740662987 
0.014960950375417247 
0.2844271899069747 
0.6435244953401319 
1.1602583695418276 
1.9096134298221072 
2.9569087941878216 
3.5614904439435415 
-1.0348638622235136 
-0.6560745132941849 
-0.12796546165523565 
0.08754387074624137 
0.19141058587050544 
0.2637303431459861 
0.34855082994032804 
0.485693555879546 
0.7260343239851276 
1.1423074185895268 
1.8598298564072278 
2.3144550567381614 
-0.029763668284953027 
0.10589353009141825 
0.3048590710914204 
0.38124823060870117 
0.3951318486356775 
0.3958158061237679 
0.4037900150001243 
0.44101038226811196 
0.5421887471926712 
0.7643945743620267 
1.1611370134715684 
1.4077246755899182 
</DataArray>
<DataArray type="Float64" Name="Nodal_sigma_yy" NumberOfComponents="1" format="ascii" >
-3.3210514884454114 
-2.677876509214646 
-1.6047042226788926 
-0.7325655764578789 
0.0665721451880141 
0.6992303280255445 
1.16176894314433 
1.4478746829119744 
1.5678530066199277 
1.5534078263354159 
1.4623376827390362 
1.4064621183786001 
-1.978648191155714 
-1.9011584782876587 
-1.5182737131456512 
-0.8541788829301881 
-0.16961322273552049 
0.4248069686679964 
0.8938370226829102 
1.2244668411665582 
1.4202612771228922 
1.5011570206491567 
1.5061451288856311 
1.495877855933081 
-0.5647613890976542 
-0.8889210548590659 
-1.17901777000226 
-0.9464000688641727 
-0.49960746580869797 
-0.008054006017357021 
0.4502114416997214 
0.8423394152309471 
1.1573347888333392 
1.3947261777789048 
1.5562201217989522 
1.6181399174059423 
-0.439979199458182 
-0.555809392992494 
-0.7715841668658676 
-0.8067560293513805 
-0.5819039907472485 
-0.22136085409488696 
0.18711132400531627 
0.5939495417323055 
0.9740049748694147 
1.312220953731424 
1.586156260277197 
1.7031011655695056 
-0.3691753511569248 
-0.4131913443069465 
-0.5240893386776209 
-0.5909127971555057 
-0.49906147452347754 
-0.2530989001014227 
0.08956901891297123 
0.4814893956820526 
0.8909311237004267 
1.2949911842414266 
1.665794739069322 
1.8385577090871092 
-0.3431284880939494 
-0.34487995943009425 
-0.3723232928133735 
-0.3973310072799046 
-0.3376530893882787 
-0.158737600643905 
0.12796027055682513 
0.4934929737032958 
0.9109617624782933 
1.357840306808883 
1.8098042286397933 
2.0336018445360198 
-0.3289432813707557 
-0.30632596680820967 
-0.2715863910933529 
-0.2366995738827278 
-0.15624050583534554 
0.006147974324750609 
0.26239000496924497 
0.6057481580665192 
1.0218297639626432 
1.4952806892333779 
2.0099599703773796 
2.275459841522963 
-0.31755260856481266 
-0.2777739575860457 
-0.1952316202213451 
-0.10163553778515391 
0.02165818474661379 
0.2003317203867908 
0.45284308408652524 
0.7865414424156235 
1.2003703925711295 
1.6891941446464518 
2.246750544252169 
2.5419129381500394 
-0.30476561604700864 
-0.25051186219165616 
-0.1284755740172891 
0.017384886744305418 
0.18902034664484368 
0.40017971956908727 
0.667395702695762 
1.0040947545354117 
1.4186124620391545 
1.9151890418449513 
2.4965412486008165 
2.8087496748753673 
-0.2888538648922392 
-0.22074702645971844 
-0.06369977094509205 
0.1277141359690377 
0.3456678457868234 
0.5941858281842542 
0.8849512751641206 
1.2324293341854666 
1.6500060093375648 
2.1484020236776513 
2.736718194090358 
3.054464650861928 
-0.2690682816672523 
-0.18705316976378983 
0.0025308290308663703 
0.23397181836867206 
0.49364615220691027 
0.778157205035628 
1.0938856081715884 
1.4539595415092106 
1.8738895892774314 
2.368128798138007 
2.949321725332927 
3.2631511397967397 
-0.245230711855862 
-0.1493230059136454 
0.07107270094016818 
0.33843181828663527 
0.6352546020211821 
0.9519896396990153 
1.2897683300998484 
1.6594743174305968 
2.0774550123815647 
2.560461034933881 
3.1228772466615866 
3.4255574634798727 
-0.2176332845065823 
-0.10837634476386043 
0.1410846594522202 
0.44161342549234994 
0.7723606260570685 
1.1177570611631091 
1.4732685632648843 
1.846924804704692 
2.2556961108687124 
2.7187925614754915 
3.252289877136679 
3.538343372908982 
-0.1871108053742757 
-0.06562411426464472 
0.2110561606103432 
0.5435086486405055 
0.9068919520791079 
1.2789200548001853 
1.6485844078259602 
2.019911620184015 
2.4102664039704056 
2.8427811756156443 
3.3371680799152657 
3.601828433476477 
-0.15422241263916397 
-0.021942397785497808 
0.28149944344124367 
0.6475318660102948 
1.0441976054133337 
1.4419010893020812 
1.8228708332979762 
2.186210462564261 
2.548094446328524 
2.9364633828192805 
3.3791080683565435 
3.6169895752152392 
-0.12115306817590006 
0.025549388945127323 
0.3637550450544764 
0.771631252338937 
1.2049887943687474 
1.6248588508953152 
2.0102191526604045 
2.3569038766167885 
2.6788847358454833 
3.0067223289989884 
3.377960776762027 
3.579132545616064 
-0.06784701269899211 
0.09893363308263112 
0.5024108550427511 
0.9844649498472031 
1.4574326290086765 
1.8841904372785747 
2.2510415984692984 
2.5569938813311825 
2.8135538267845606 
3.0533327406027393 
3.3279685569589255 
3.481136635544771 
-0.04829681879085093 
0.2688828528499143 
0.9054560584950408 
1.4970197187541001 
1.9860784106035003 
2.36974964022258 
2.6600891673088465 
2.8692503725705976 
3.007134974384061 
3.090263874002578 
3.1718388003675675 
3.222565086727643 
0.8793388589779833 
1.3976898190017237 
2.26239368406907 
2.8324801235354733 
3.1913834880495275 
3.397683756003974 
3.4921451743192065 
3.5009061519436586 
3.438170555981566 
3.3063600966213818 
3.1054395790885656 
2.988163927781433 
1.8247004838654592 
2.4044935002745307 
3.308341769594967 
3.797495450448729 
4.030095974143839 
4.099470504907703 
4.056596765964123 
3.932367174037351 
3.7453872562510275 
3.50185144571722 
3.156786936476064 
2.9477617379544316 
</DataArray>
<DataArray type="Float64" Name="Nodal_sigma_xy" NumberOfComponents="1" format="ascii" >
0.8255358845180432 
0.42132541549338937 
-0.04078026041913469 
0.008872487126723866 
0.28564764454441904 
0.6514696093417692 
1.0439362462388084 
1.4098788524387105 
1.698772900224041 
1.8627031413682107 
1.8663487055824586 
1.8248873453216208 
0.14655785383630549 
0.19398013729574656 
0.19963992886902238 
0.2344737442035496 
0.45070531491420895 
0.7599911257846848 
1.1035797371274019 
1.4323315710082638 
1.699615686965974 
1.8607990737152635 
1.8843086792887682 
1.85910524415204 
-0.7314885577063299 
-0.21158575610391323 
0.41251600734896005 
0.5819503049289638 
0.748480907011402 
0.9776805221069989 
1.2434314636312425 
1.5107072921463431 
1.7419437641651894 
1.898008422980144 
1.9454957748207649 
1.9387257041317145 
-1.0104569404455461 
-0.4987956174783408 
0.2955118927445782 
0.7135419315708909 
0.9561155746335905 
1.1758829656666534 
1.4068834982272265 
1.6398590552650678 
1.8504346972979195 
2.0051757028601838 
2.062695303214075 
2.0614969160203223 
-1.1204943037283064 
-0.6716254864982214 
0.12044401785552614 
0.6824613817535712 
1.0492930734066983 
1.3211230103792801 
1.561966032390595 
1.7901036945895337 
1.998049722609896 
2.161450459642286 
2.238885854901131 
2.2497569788664875 
-1.1586183789029425 
-0.769869478065818 
-0.02997617991731777 
0.589130910201411 
1.0530653994079309 
1.4018767657422853 
1.6864453744065893 
1.937717926974805 
2.162977139682866 
2.349532926605515 
2.463902345144286 
2.49743167562937 
-1.1632269890429159 
-0.8187916530470233 
-0.13600444159124125 
0.4917479268570891 
1.0128868249898577 
1.4305569046486344 
1.7727920864206836 
2.0669885206167633 
2.327595564646559 
2.5523941264583634 
2.7198053394550907 
2.7851321077313287 
-1.149007202615314 
-0.833193140132216 
-0.19647038782494655 
0.41825213081462786 
0.964797505429446 
1.4308118093254771 
1.8270132528474423 
2.171710456301715 
2.4792911744993873 
2.7539393731921855 
2.985534639349577 
3.088283906982919 
-1.1209025588098063 
-0.8210049952815639 
-0.21544767138704818 
0.38004131565454174 
0.9316189362186831 
1.4248761408484698 
1.8620096305553482 
2.25368919935638 
2.611135304351178 
2.9407837022443166 
3.240708600135795 
3.3823763152938175 
-1.0798641583608477 
-0.7861910353147118 
-0.1975471480634615 
0.38028776404152304 
0.9258014233568288 
1.4291000110353338 
1.8911268043337923 
2.3190124867186617 
2.7210534576294534 
3.1034333989621357 
3.4684429412667246 
3.646605547799944 
-1.0253659658287915 
-0.7306493193600174 
-0.14662217771738287 
0.4186352713206857 
0.9532208361367325 
1.4538873637582328 
1.9250225703691508 
2.374548184246977 
2.809895804007353 
3.236248949288767 
3.6568207877763466 
3.8659687768063185 
-0.9566391359619868 
-0.6554463813992822 
-0.06566019810844749 
0.49370138281085757 
1.01647337065479 
1.5055586309498712 
1.9712829191524965 
2.4261149461196796 
2.8795612774564314 
3.3364652686421516 
3.7988727163397122 
4.031633340781423 
-0.8734843430093452 
-0.5617016374611716 
0.04294282985816419 
0.6043552183041492 
1.1173813434169677 
1.588873045470426 
2.035845007531752 
2.4784434970047924 
2.9319327009018132 
3.4028464620493626 
3.8912914896134936 
4.139669228899919 
-0.776986644231325 
-0.4512305122467677 
0.17714175917856628 
0.7503222966711589 
1.2585998999705372 
1.7094084526911886 
2.125465355970043 
2.5367374144591475 
2.9689331407957775 
3.434403593485393 
3.9322458283086394 
4.18850283409556 
-0.6700028597552077 
-0.32651933301533653 
0.3358759674190912 
0.9327359102265986 
1.4440237982119795 
1.874506209984338 
2.249990989855932 
2.6096492511832117 
2.994121510512227 
3.4295579663245954 
3.9185412295309745 
4.175244121898388 
-0.5561552276689323 
-0.18804096319404956 
0.5229968569441108 
1.1563402823764954 
1.6779983007776844 
2.090237293349139 
2.4202558892270902 
2.7113660875273826 
3.0170450954188346 
3.3869186223022725 
3.8419511338972328 
4.090696680138495 
-0.4325618792269355 
-0.022775107358145863 
0.7628616358218565 
1.4385172654463882 
1.9633125663047566 
2.3515547446696097 
2.6338798504278835 
2.850467573528496 
3.0542505696852476 
3.3128792471530435 
3.687385649988327 
3.909531218350425 
-0.25531208199069005 
0.2532730902740935 
1.1497912804459616 
1.8162991056910132 
2.2912050812846454 
2.6224351522045195 
2.8460604933690417 
2.991914914682264 
3.0949295895919238 
3.210730668357275 
3.4377447553117464 
3.594844455597615 
0.5474446788971983 
1.0352382874435262 
1.8099217198735196 
2.279248971407295 
2.584563859895997 
2.791237069989051 
2.9285979088095937 
3.0091135823910475 
3.039315694511048 
3.029371939291652 
3.0094104785809357 
3.0026443011942425 
1.2383341607797216 
1.6335232146523466 
2.221339906007624 
2.523560522162234 
2.705688194871243 
2.8294552195535445 
2.9147806769009232 
2.9637707244518254 
2.967571652327928 
2.906988435988519 
2.7316424309466534 
2.605783649271525 
</DataArray>
</PointData>
<CellData>
</CellData>
<Points>
<DataArray type="Float64" Name="Points" NumberOfComponents="3" format="ascii">
0.0 50.0 0.0
0.0 45.4545441 0.0
0.0 40.9090919 0.0
0.0 36.363636 0.0
0.0 31.818182 0.0
0.0 27.272728 0.0
0.0 22.727272 0.0
0.0 18.181818 0.0
0.0 13.636364 0.0
0.0 9.090909 0.0
0.0 4.5454545 0.0
0.0 0.0 0.0
2.52631569 50.5263176 0.0
2.52631569 46.1435394 0.0
2.52631569 41.7607651 0.0
2.52631569 37.3779907 0.0
2.52631569 32.9952164 0.0
2.52631569 28.6124401 0.0
2.52631569 24.2296658 0.0
2.52631569 19.8468895 0.0
2.52631569 15.4641151 0.0
2.52631569 11.0813398 0.0
2.52631569 6.69856453 0.0
2.52631569 2.31578946 0.0
5.05263138 51.0526314 0.0
5.05263138 46.8325348 0.0
5.05263138 42.612442 0.0
5.05263138 38.3923454 0.0
5.05263138 34.1722488 0.0
5.05263138 29.9521523 0.0
5.05263138 25.7320576 0.0
5.05263138 21.511961 0.0
5.05263138 17.2918663 0.0
5.05263138 13.0717707 0.0
5.05263138 8.85167503 0.0
5.05263138 4.63157892 0.0
7.57894754 51.578949 0.0
7.57894754 47.5215302 0.0
7.57894754 43.4641151 0.0
7.57894754 39.4067001 0.0
7.57894754 35.3492813 0.0
7.57894754 31.2918663 0.0
7.57894754 27.2344494 0.0
7.57894754 23.1770344 0.0
7.57894754 19.1196175 0.0
7.57894754 15.0622005 0.0
7.57894754 11.0047846 0.0
7.57894754 6.94736862 0.0
10.1052628 52.1052628 0.0
10.1052628 48.2105255 0.0
10.1052628 44.3157883 0.0
10.1052628 40.421051 0.0
10.1052628 36.5263176 0.0
10.1052628 32.6315804 0.0
10.1052628 28.7368412 0.0
10.1052628 24.8421059 0.0
10.1052628 20.9473686 0.0
10.1052628 17.0526314 0.0
10.1052628 13.1578951 0.0
10.1052628 9.26315784 0.0
12.6315794 52.6315804 0.0
12.6315794 48.8995209 0.0
12.6315794 45.1674652 0.0
12.6315794 41.4354057 0.0
12.6315794 37.7033501 0.0
12.6315794 33.9712906 0.0
12.6315794 30.2392349 0.0
12.6315794 26.5071774 0.0
12.6315794 22.7751198 0.0
12.6315794 19.0430622 0.0
12.6315794 15.3110046 0.0
12.6315794 11.5789471 0.0
15.1578951 53.1578941 0.0
15.1578951 49.5885162 0.0
15.1578951 46.0191383 0.0
15.1578951 42.4497604 0.0
15.1578951 38.8803825 0.0
15.1578951 35.3110046 0.0
15.1578951 31.7416267 0.0
15.1578951 28.1722488 0.0
15.1578951 24.6028709 0.0
15.1578951 21.033493 0.0
15.1578951 17.4641151 0.0
15.1578951 13.8947372 0.0
17.6842098 53.6842117 0.0
17.6842098 50.2775116 0.0
17.6842098 46.8708153 0.0
17.6842098 43.4641151 0.0
17.6842098 40.057415 0.0
17.6842098 36.6507187 0.0
17.6842098 33.2440186 0.0
17.6842098 29.8373203 0.0
17.6842098 26.4306221 0.0
17.6842098 23.0239239 0.0
17.6842098 19.6172256 0.0
17.6842098 16.2105255 0.0
20.2105255 54.2105255 0.0
20.2105255 50.966507 0.0
20.2105255 47.7224884 0.0
20.2105255 44.4784698 0.0
20.2105255 41.2344513 0.0
20.2105255 37.9904289 0.0
20.2105255 34.7464104 0.0
20.2105255 31.5023918 0.0
20.2105255 28.2583733 0.0
20.2105255 25.0143547 0.0
20.2105255 21.7703342 0.0
20.2105255 18.5263157 0.0
22.7368412 54.7368431 0.0
22.7368412 51.6555023 0.0
22.7368412 48.5741615 0.0
22.7368412 45.4928246 0.0
22.7368412 42.4114838 0.0
22.7368412 39.330143 0.0
22.7368412 36.2488022 0.0
22.7368412 33.1674652 0.0
22.7368412 30.0861244 0.0
22.7368412 27.0047855 0.0
22.7368412 23.9234447 0.0
22.7368412 20.8421059 0.0
25.2631588 55.2631569 0.0
25.2631588 52.3444977 0.0
25.2631588 49.4258385 0.0
25.2631588 46.5071754 0.0
25.2631588 43.5885162 0.0
25.2631588 40.669857 0.0
25.2631588 37.7511978 0.0
25.2631588 34.8325348 0.0
25.2631588 31.9138756 0.0
25.2631588 28.9952145 0.0
25.2631588 26.0765553 0.0
25.2631588 23.1578941 0.0
27.7894745 55.7894745 0.0
27.7894745 53.033493 0.0
27.7894745 50.2775116 0.0
27.7894745 47.5215302 0.0
27.7894745 44.7655487 0.0
27.7894745 42.0095711 0.0
27.7894745 39.2535896 0.0
27.7894745 36.4976082 0.0
27.7894745 33.7416267 0.0
27.7894745 30.9856453 0.0
27.7894745 28.2296658 0.0
27.7894745 25.4736843 0.0
30.3157902 56.3157883 0.0
30.3157902 53.7224884 0.0
30.3157902 51.1291847 0.0
30.3157902 48.5358849 0.0
30.3157902 45.942585 0.0
30.3157902 43.3492813 0.0
30.3157902 40.7559814 0.0
30.3157902 38.1626778 0.0
30.3157902 35.5693779 0.0
30.3157902 32.976078 0.0
30.3157902 30.3827744 0.0
30.3157902 27.7894745 0.0
32.8421059 56.8421059 0.0
32.8421059 54.4114838 0.0
32.8421059 51.9808617 0.0
32.8421059 49.5502396 0.0
32.8421059 47.1196175 0.0
32.8421059 44.6889954 0.0
32.8421059 42.2583733 0.0
32.8421059 39.8277512 0.0
32.8421059 37.3971291 0.0
32.8421059 34.966507 0.0
32.8421059 32.5358849 0.0
32.8421059 30.1052628 0.0
35.3684196 57.3684196 0.0
35.3684196 55.1004791 0.0
35.3684196 52.8325348 0.0
35.3684196 50.5645943 0.0
35.3684196 48.2966499 0.0
35.3684196 46.0287094 0.0
35.3684196 43.7607651 0.0
35.3684196 41.4928246 0.0
35.3684196 39.2248802 0.0
35.3684196 36.9569397 0.0
35.3684196 34.6889954 0.0
35.3684196 32.421051 0.0
37.8947372 57.8947372 0.0
37.8947372 55.7894745 0.0
37.8947372 53.6842117 0.0
37.8947372 51.578949 0.0
37.8947372 49.4736824 0.0
37.8947372 47.3684196 0.0
37.8947372 45.2631569 0.0
37.8947372 43.1578941 0.0
37.8947372 41.0526314 0.0
37.8947372 38.9473686 0.0
37.8947372 36.8421059 0.0
37.8947372 34.7368431 0.0
40.421051 58.421051 0.0