<?xml version="1.0"?>
<VTKFile type="UnstructuredGrid" version="0.1" byte_order="LittleEndian" compressor="vtkZLibDataCompressor">
<UnstructuredGrid>
<Piece NumberOfPoints="240" NumberOfCells="209">
<PointData>
<DataArray type="Float64" Name="displacement" NumberOfComponents="3" format="ascii" >
0.0 0.0  0.
0.0 0.0  0.
0.0 0.0  0.
0.0 0.0  0.
0.0 0.0  0.
0.0 0.0  0.
0.0 0.0  0.
0.0 0.0  0.
0.0 0.0  0.
0.0 0.0  0.
0.0 0.0  0.
0.0 0.0  0.
-0.00013994941354884724 7.427597894271745e-05  0.
-5.6611508787367005e-05 1.7144721607316683e-05  0.
-3.030877151351568e-05 7.893561517395283e-06  0.
-9.91685319030591e-06 1.0095748103275671e-05  0.
5.172172196959518e-06 1.6795907682254927e-05  0.
1.6287080802943582e-05 2.5744781800397355e-05  0.
2.3613400203513144e-05 3.5210266370562404e-05  0.
2.7286330824041778e-05 4.3755902720585956e-05  0.
2.7497358697703336e-05 4.9978647221989376e-05  0.
2.4684660207444337e-05 5.252595567440586e-05  0.
1.9801970425293626e-05 5.031738247590774e-05  0.
1.3110601158577506e-05 4.1463397505143194e-05  0.
-0.0002646647092973841 0.00012444894294574166  0.
-0.00013870689332214228 7.119508119171841e-05  0.
-7.084089099333748e-05 4.364802321451958e-05  0.
-2.720123183846438e-05 4.028763550449018e-05  0.
5.640103735113485e-06 4.746210161913402e-05  0.
2.9853944980388665e-05 5.976610690894521e-05  0.
4.639305658028802e-05 7.396197423653462e-05  0.
5.554610452769249e-05 8.745334968234415e-05  0.
5.7591890186257184e-05 9.789768307196055e-05  0.
5.313476757139907e-05 0.00010312071678393418  0.
4.346613894006508e-05 0.00010127793885182145  0.
3.055742773632229e-05 9.14536966134878e-05  0.
-0.00037920973938140976 0.00018424644460358634  0.
-0.00022880637636601183 0.0001346545657281778  0.
-0.00012594134804762543 0.00010235435808469645  0.
-5.438737252476701e-05 9.073786713834267e-05  0.
-1.46709169501968e-06 9.401403537172436e-05  0.
3.809728310664519e-05 0.00010534918541490605  0.
6.596662369994449e-05 0.00012031293457628665  0.
8.279954046330534e-05 0.00013547831633303387  0.
8.894975606781349e-05 0.0001478523756364724  0.
8.50110520052943e-05 0.0001547107127547584  0.
7.23342942423208e-05 0.00015374780369904195  0.
5.358902707384225e-05 0.0001436951644410741  0.
-0.0004897972385428699 0.000254778305352213  0.
-0.00032201593004914337 0.0002089017340590404  0.
-0.0001916868853320991 0.00017596386750983413  0.
-9.319975041130174e-05 0.0001594068943242319  0.
-1.824982057364148e-05 0.00015723251073955106  0.
3.8617043928296215e-05 0.00016481845293798354  0.
7.995910932180226e-05 0.0001775676542083977  0.
0.00010680045620679308 0.00019165305275558675  0.
0.00011961983393181155 0.000203707508054773  0.
0.00011893102082722458 0.00021065966803891816  0.
0.0001058717696956277 0.00020979608591077702  0.
8.293568653237635e-05 0.0001991648750934955  0.
-0.0005994187276992205 0.0003375145134840651  0.
-0.00041734421201690994 0.00029480003786058333  0.
-0.00026526161849480966 0.0002628213583292096  0.
-0.0001428561886841361 0.00024366088359005898  0.
-4.594727341127421e-05 0.00023682764196367333  0.
2.9531483184748464e-05 0.00023957728973249972  0.
8.615855365871112e-05 0.0002482685970379425  0.
0.00012521869543960824 0.0002592424844740746  0.
0.00014728978284226247 0.00026907449902719343  0.
0.00015278824484779216 0.00027454535569625767  0.
0.00014250250417780148 0.00027265949911999107  0.
0.00011827980605383994 0.00026083808001353703  0.
-0.0007097967994171864 0.000433595508880991  0.
-0.0005149800190776744 0.000393561578971618  0.
-0.0003451391260312642 0.00036297658185422153  0.
-0.00020217027571185024 0.000342612977394429  0.
-8.470650570173025e-05 0.0003322741218139751  0.
9.604043259742749e-06 0.0003303586056554063  0.
8.272045737750633e-05 0.000334263491767102  0.
0.00013583185857892732 0.00034093448062186434  0.
0.00016951538135145122 0.0003472063662644552  0.
0.00018406937954608892 0.0003499337439144737  0.
0.00017991545161274612 0.00034602846080070826  0.
0.0001581269116416479 0.0003325257914009549  0.
-0.00082196751193985 0.0005441688535491121  0.
-0.0006154236616609731 0.0005064688537339151  0.
-0.000430654764074206 0.00047729664429699455  0.
-0.00027018031309760434 0.0004564580963692413  0.
-0.00013419757021457758 0.0004436034960789754  0.
-2.1754688673560384e-05 0.0004376860620248915  0.
6.827225402808581e-05 0.0004368983257817413  0.
0.0001366939311732745 0.0004388700898023377  0.
0.00018392331729701666 0.00044090140709992766  0.
0.00021010114767934016 0.00044012012965275826  0.
0.00021532425313128766 0.0004335519056680033  0.
0.00019997856074176583 0.00041813662580771516  0.
-0.0009365547480164103 0.0006704378895885653  0.
-0.0007191720662669361 0.0006348694948635167  0.
-0.0005216202920742746 0.0006070185670753656  0.
-0.00034627680279708593 0.0005860620285779269  0.
-0.00019400146709111236 0.0005714092411036792  0.
-6.473687061408454e-05 0.0005622441725308714  0.
4.189621080255784e-05 0.0005572855152768695  0.
0.00012622092738225437 0.0005547553583031327  0.
0.00018836023121921914 0.0005524685980293718  0.
0.00022824568213472752 0.0005479480178519788  0.
0.00024570515847481864 0.0005385000539980498  0.
0.00024061674115390613 0.0005212245533137622  0.
-0.0010538823744082415 0.0008136783830866364  0.
-0.0008266070172097679 0.0007801672717552972  0.
-0.000618065965449134 0.0007535643287366315  0.
-0.00043014472705361884 0.0007326756658586696  0.
-0.00026379159576402333 0.0007167201311088571  0.
-0.0001193690871529516 0.0007049798125463346  0.
2.995303478328104e-06 0.0006965168289900884  0.
0.00010317700801477988 0.0006900185322905748  0.
0.00018096187921174049 0.0006837745593884405  0.
0.00023603584495532177 0.0006757351572566351  0.
0.0002680035854470765 0.0006635795698728203  0.
0.0002764202948987499 0.0006447374601005919  0.
-0.001174014400869768 0.0009752248255134371  0.
-0.0009379490732828402 0.000943805533777339  0.
-0.0007200762842922582 0.00091844729948721  0.
-0.0005216546395369007 0.0008977626952045381  0.
-0.0003433822209478328 0.0008808591242380688  0.
-0.0001856646079891075 0.0008670879137087748  0.
-4.886278816116811e-05 0.0008557654293888163  0.
6.658099635325048e-05 0.000845951285854435  0.
0.00016013766820790202 0.0008363462157965541  0.
0.00023123624530020485 0.0008253032154256319  0.
0.00027928594990430587 0.0008108906434324879  0.
0.00030365816517388314 0.0007909367473915905  0.
-0.001296772410472876 0.0011564392491432332  0.
-0.0010532289497164416 0.0011272356279138829  0.
-0.0008276781204395521 0.0011032107173675556  0.
-0.0006207477713344263 0.0010828904656190147  0.
-0.00043269709440155646 0.0010653286829843613  0.
-0.0002636951863398232 0.0010499551832082253  0.
-0.00011407298065403511 0.0010363162381102915  0.
1.5579958608616464e-05 0.001023804321845035  0.
0.00012448782644428706 0.0010114871011686754  0.
0.00021182671610196925 0.000998077234850831  0.
0.00027681537183966873 0.0009819972186359976  0.
0.00031871251853813796 0.0009614566078248867  0.
-0.0014217497999476172 0.001358672206379196  0.
-0.001172264243950679 0.0013318766867787095  0.
-0.0009407544875857394 0.0013093763129263818  0.
-0.0007273168093545346 0.0012896537628814414  0.
-0.0005316877763069296 0.001271724476763217  0.
-0.0003535878418409016 0.0012551004956855875  0.
-0.00019306920891097243 0.0012395630657351863  0.
-5.066961648573859e-05 0.0012248459629767817  0.
7.268332488594402e-05 0.0012103814688533521  0.
0.0001759203495099212 0.0011952140064024738  0.
0.00025804346808377943 0.0011780650914503957  0.
0.0003181977194931553 0.0011574545850392124  0.
-0.0015483592152901117 0.0015832345275694976  0.
-0.0012946441268094256 0.0015590797045066235  0.
-0.001058963342717778 0.0015384000104561994  0.
-0.0008410804755984339 0.0015196121170337456  0.
-0.0006402039317445946 0.0015016616962221557  0.
-0.00045544615056362643 0.001484116064699988  0.
-0.0002863270817738435 0.0014669889859411356  0.
-0.00013308697960239392 0.0014503919100423447  0.
3.3351664677215885e-06 0.0014341714103199713  0.
0.00012163231604193614 0.0014177178654670613  0.
0.00022052089232545445 0.0014000114047002842  0.
0.00029895860587283687 0.0013797875278525155  0.
-0.0016759420324665899 0.0018314228608640316  0.
-0.0014197380704040487 0.0018101470423756093  0.
-0.0011816664201925084 0.0017916664527029241  0.
-0.0009614509921066006 0.0017742504787010124  0.
-0.0007578235161762005 0.0017567004443146794  0.
-0.000569176275528941 0.0017385898174018576  0.
-0.00039425510262257134 0.0017201240410470104  0.
-0.0002326732505296135 0.0017018064007773268  0.
-8.511829624652633e-05 0.0016839936664987429  0.
4.691168778210586e-05 0.0016665156196070119  0.
0.00016173121431942692 0.0016486084119815088  0.
0.0002579488398706241 0.0016291507331680282  0.
-0.001804018301571675 0.0021047530533308007  0.
-0.0015467560275756196 0.002086514718093579  0.
-0.0013078906258110218 0.002070644511766912  0.
-0.0010874370420122547 0.002055025162735653  0.
-0.0008836810842580247 0.0020382829359329342  0.
-0.0006942374797196885 0.002019962842065694  0.
-0.0005169070487555345 0.0020004070024169924  0.
-0.00035033242399776774 0.0019804369566751765  0.
-0.00019444814087603017 0.001960955154054682  0.
-5.064592745557458e-05 0.0019424286575575717  0.
7.884358858833355e-05 0.0019245011275889315  0.
0.000191979638304531 0.0019060969013503632  0.
-0.0019326993003620325 0.002405547999672504  0.
-0.001674842667572081 0.0023905107719436685  0.
-0.001436383035111944 0.002377422124185924  0.
-0.0012176733444455002 0.002363724310001857  0.
-0.0010164635039567496 0.0023477830471456723  0.
-0.0008294765021995367 0.0023293004997352647  0.
-0.0006535733369749124 0.0023087831388858655  0.
-0.0004862919794540004 0.002287235102356364  0.
-0.00032630692998801585 0.0022659257142523376  0.
-0.00017394393045097855 0.0022460291946512106  0.
-3.165820998949609e-05 0.0022279091790784293  0.
9.733835074177605e-05 0.0022108898668544877  0.
-0.0020635028914297734 0.002739597276609558  0.
-0.0018032859725590996 0.0027270691555034018  0.
-0.0015656750320630628 0.0027166675482841645  0.
-0.0013509589692234961 0.0027035783337344705  0.
-0.0011549744824737136 0.00268692464304414  0.
-0.0009734948348066019 0.0026671216091745118  0.
-0.0008027195696446059 0.002645016378811143  0.
-0.0006393787031780996 0.0026216755309708155  0.
-0.00048089181127635886 0.002598410902496574  0.
-0.0003257558867267703 0.002576790502500975  0.
-0.0001743213310523605 0.0025583233187311955  0.
-3.1033776288207624e-05 0.0025424264712364257  0.
-0.0021995763451433496 0.0031194973618900224  0.
-0.001929585668601558 0.0031123135444489085  0.
-0.0016959727096668466 0.003099708365238433  0.
-0.0014883708489320964 0.0030811914126914566  0.
-0.0013000931603334705 0.003058552648194639  0.
-0.001126304832745761 0.0030334360234876238  0.
-0.0009631809937791741 0.0030070675749184687  0.
-0.0008073732610939475 0.0029803990330335116  0.
-0.0006557710946953658 0.0029543461178916782  0.
-0.0005054861989758494 0.0029301273036413103  0.
-0.00035406615673302987 0.002909814193597933  0.
-0.00019961304078953474 0.0028977230212622303  0.
-0.0023255202434559422 0.003609575308647771  0.
-0.0020614056655653508 0.0035827685039647424  0.
-0.001837299282450404 0.003545548685110097  0.
-0.00163890189331361 0.003505583840678511  0.
-0.001458881621391525 0.0034656672996642196  0.
-0.0012927786102696185 0.0034270686950650395  0.
-0.0011373246119485481 0.003390501622908354  0.
-0.0009897595400536387 0.0033564187746909883  0.
-0.000847444145306491 0.003325093199136254  0.
-0.0007075848561040942 0.0032966260197569474  0.
-0.0005670114879108215 0.003270928542171651  0.
-0.00042212497025419986 0.0032474368094030375  0.
</DataArray>
<DataArray type="Float64" Name="Nodal_sigma_xx" NumberOfComponents="1" format="ascii" >
-45.61721665975833 
-33.47880954353659 
-15.529193943317042 
-5.212450162202653 
2.634210743746898 
8.307731763533909 
11.997277347888208 
13.783722491024921 
13.813646376203165 
12.40129195466557 
9.91737935884122 
8.44645009999626 
-42.714718183894846 
-33.115026889698385 
-17.090827185451626 
-6.047443394623938 
2.047743608634275 
7.972192793732228 
11.893660978533969 
13.904879019361289 
14.128505845806972 
12.825329168258905 
10.401722067260762 
8.967031051613674 
-38.17573053474926 
-32.01871672120006 
-19.32077628530932 
-7.878484651406243 
0.737307695796084 
7.137966328669901 
11.54002085478707 
14.033127418187135 
14.701860519034621 
13.716674329269573 
11.45533506544181 
10.07063175771065 
-35.475030991267374 
-30.637806419664997 
-20.17816126134493 
-9.600961820464327 
-0.7557674573928657 
6.0435063039412 
10.91999221667399 
13.93553754521863 
15.139006127494778 
14.628877184023176 
12.647219178589085 
11.331241030665382 
-33.72779264706128 
-29.47576701498132 
-20.332376458856235 
-10.781201688111178 
-2.1835121149887717 
4.82900779089643 
10.104420178898396 
13.629758267511823 
15.406446325188226 
15.464777390995229 
13.915257063127784 
12.759527847055553 
-32.603562928949216 
-28.582149978374975 
-20.178363299633745 
-11.489672322710284 
-3.346620076757824 
3.645935266041415 
9.189437336408375 
13.16023582020094 
15.499930552803985 
16.17692039824866 
15.197359316752362 
14.297386363385568 
-31.871762513347882 
-27.92780561689785 
-19.92470157593014 
-11.87496716320728 
-4.214361827750485 
2.60804135084535 
8.273948153728128 
12.591378404638204 
15.443075675596992 
16.745735995691447 
16.433015687612265 
15.865423771025899 
-31.374018123915953 
-27.448767690504468 
-19.66647468159654 
-12.06774690672498 
-4.833839287131686 
1.754784241002212 
7.431871296410144 
11.989938524329496 
15.276662242287134 
17.17295563075825 
17.570131620704167 
17.380356659709463 
-30.98827933519194 
-27.070865905979936 
-19.43120460676581 
-12.15711291174781 
-5.275010533931298 
1.0725709981180438 
6.695254746438636 
11.405873893895489 
15.043635350487957 
17.47341881271569 
18.56993061146397 
18.769162026192006 
-30.610213200496844 
-26.71604781468412 
-19.206699802172224 
-12.191472762804302 
-5.602488402813552 
0.5197267895336118 
6.058022351274056 
10.860346032919317 
14.774584187815229 
17.664973004430376 
19.408080043343794 
19.977733055608 
-30.143096564049497 
-26.303016783124164 
-18.955043437302884 
-12.184896729608731 
-5.86345318025584 
0.04505180584687729 
5.48614270973248 
10.34329747454656 
14.477587136937021 
17.75818185318975 
20.07152441570507 
20.973183483881613 
-29.493768150874896 
-25.746277966207124 
-18.617542502798067 
-12.120971286274905 
-6.082208340977662 
-0.40020518062888055 
4.927406037012599 
9.815430897350403 
14.132666829265172 
17.74730307896582 
20.551698947555703 
21.73971470282998 
-28.573911126537674 
-24.95590277512471 
-18.11369491048566 
-11.951006001307714 
-6.254143242191425 
-0.8529408489662458 
4.319119529993832 
9.210109297555672 
13.687469084097472 
17.601756713461416 
20.834622942479292 
22.268802910012507 
-27.30747151291851 
-23.83950412165535 
-17.336268410807513 
-11.585955170376852 
-6.333850933697567 
-1.3247497121157956 
3.5967991706479188 
8.433147618053203 
13.049415934812805 
17.254207337164562 
20.886829711372258 
22.54408752959776 
-25.64344582272781 
-22.306710822739603 
-16.144563951945337 
-10.884824282417465 
-6.216963929601547 
-1.7766726665993362 
2.71493320032473 
7.364702692304421 
12.0698316623432 
16.577534499678713 
20.631852485689745 
22.518674270440314 
-23.568850926315406 
-20.268402059914276 
-14.35544591052492 
-9.650756305943522 
-5.72873780316075 
-2.086777824056895 
1.699054933539001 
5.891991839194679 
10.524206261136488 
15.336490734776174 
19.903914260705893 
22.0720397889637 
-21.059781591246256 
-17.599865030023796 
-11.73300620631857 
-7.65934510234896 
-4.6673844841791965 
-2.0553078841168433 
0.7115091336839432 
4.035953531202038 
8.171688839365377 
13.105377187019457 
18.3324439490218 
20.917095468436656 
-17.823063693569026 
-13.896686720708185 
-7.97471319897724 
-4.867257376811994 
-2.9976597303940364 
-1.5388770508100684 
0.022673949072941457 
2.1030398604711187 
5.100189091344861 
9.378133262344576 
15.080211553631022 
18.28163568681518 
-10.901695525931107 
-7.839219001535278 
-3.6408465837304282 
-2.009335963785508 
-1.243014125417154 
-0.7465560490162242 
-0.21607334999250308 
0.6100428069966467 
2.058921715399477 
4.592299898378708 
8.909784846160823 
11.621386096832634 
-5.846812557039615 
-3.97320956392627 
-1.5126294699922074 
-0.7303244566142154 
-0.4600038939090295 
-0.3410178383882409 
-0.22200887606835767 
0.043115750502755124 
0.6843448475689973 
2.1024257175245356 
4.930580092416227 
6.791773624794514 
</DataArray>
<DataArray type="Float64" Name="Nodal_sigma_yy" NumberOfComponents="1" format="ascii" >
-12.473981943243235 
-10.23700016340617 
-6.218780760836104 
-2.785139187613126 
0.1599319594011812 
2.420206977432102 
4.026399081426658 
4.992784783777902 
5.376995189908252 
5.293748611537786 
4.935194130389493 
4.7162952138787375 
-7.718243458743745 
-7.432619762940717 
-5.889183487635701 
-3.272474571310858 
-0.7295804810731352 
1.4104266059727095 
3.0781708641392784 
4.263980768991081 
5.001600251388496 
5.3665786504438575 
5.526308855276872 
5.584605163135726 
-2.484429278987875 
-3.6172452190100106 
-4.576465254778026 
-3.628653876362801 
-1.9371920425800924 
-0.1295241695894837 
1.5645768015842596 
3.066755696993736 
4.359631175327156 
5.450627615062615 
6.38810281183966 
6.828957609609929 
-1.7807137824649941 
-2.1768619445976403 
-2.9319086525411326 
-3.02381035096749 
-2.144036919470091 
-0.7723778804149748 
0.7928587410448287 
2.4084896226434953 
4.007651208952375 
5.546826042247729 
6.950717256759787 
7.6053185092043005 
-1.4761223121237528 
-1.5499492221476756 
-1.8583808259448382 
-2.0692000720599224 
-1.6707416034753737 
-0.682807895364016 
0.6896046110920437 
2.2969281201214686 
4.046364330695982 
5.865612185058346 
7.649852708463532 
8.516109898322537 
-1.3630348294186223 
-1.251427553323372 
-1.1792392168317933 
-1.1755159061805025 
-0.8622843795870315 
-0.08263638562922809 
1.1294307405485837 
2.6822467040063165 
4.494794395391 
6.49563068727265 
8.593340534047096 
9.652454225425357 
-1.3085679481650732 
-1.0855964358106989 
-0.7198219438681654 
-0.4161863850306453 
0.03550540521877035 
0.8035930794699867 
1.9502046176726995 
3.4636530741432505 
5.30417095855653 
7.424978517203082 
9.767263236468388 
10.98519289998142 
-1.2685723776978084 
-0.9652966532865297 
-0.3682107329561888 
0.2305088703511498 
0.9144831128635917 
1.8039286647893436 
2.988335391612138 
4.51037938798801 
6.377938807852467 
8.580262078481034 
11.096475512716559 
12.429907109833309 
-1.2246235819351718 
-0.8519973140620015 
-0.06037592337014519 
0.8032078552059736 
1.7409429831719216 
2.8168735963383487 
4.111185685223086 
5.690638581982817 
7.598415404891364 
9.857656217164317 
12.480993684508109 
13.884942213654591 
-1.1692032797932077 
-0.7292730174910794 
0.23710142539634949 
1.3341754155871894 
2.5141514961703098 
3.7937402561622338 
5.230688782961636 
6.896101134609709 
8.853295141250944 
11.149640446543511 
13.821124931479986 
15.254751803902115 
-1.0993682447534738 
-0.5914707957387709 
0.5388889847079551 
1.84433723671567 
3.244854985635865 
4.7191244877310385 
6.300085170036393 
8.054228983376424 
10.05523765388697 
12.36582766335448 
15.034959231027218 
16.464588654957645 
-1.0149255954766043 
-0.43936573149894564 
0.847128889537242 
2.3433391052346604 
3.9449833516335513 
5.596479621045286 
7.305042807261895 
9.129528677994909 
11.15116579340216 
13.445016524687208 
16.0675110348421 
17.466741762951052 
-0.9182234845604724 
-0.278881534244217 
1.154416760130454 
2.830693421285405 
4.6228172762256925 
6.43843442836517 
8.254342402472833 
10.118844864644071 
12.122632588506054 
14.357704312440259 
16.89073956196625 
18.238082709060713 
-0.8148907406943782 
-0.11997801154357629 
1.4480429133292068 
3.3005136330318674 
5.283585708593591 
7.261297387427154 
9.171685406182187 
11.044569198529171 
12.980831661210136 
15.101196101902929 
17.495525095283742 
18.76925420980826 
-0.709718071531136 
0.029276814021573366 
1.7242509878363748 
3.7623403758938236 
5.946255038655092 
8.09095919902769 
10.090530122347042 
11.946387326639655 
13.760326075553834 
15.690028035012435 
17.87711441139371 
19.049251698850618 
-0.6169283459899697 
0.17999165332192615 
2.039035096338482 
4.306662462347552 
6.711734811491654 
9.011060220265248 
11.072236672589973 
12.872938900154487 
14.503290231173922 
16.148451124742003 
18.01411985260857 
19.025696260752802 
-0.4363188911005761 
0.45183556710577905 
2.641595743965998 
5.316817016536037 
7.959378635628875 
10.322830299430876 
12.317589064321545 
13.935886366416366 
15.248453544532804 
16.447279333099633 
17.84244228180198 
18.633302484224444 
-0.3835115870003274 
1.2732958518185145 
4.730171393966879 
8.059080902886683 
10.787535023913897 
12.894032336085417 
14.460078832364715 
15.562098873172516 
16.25877857906147 
16.6464156060567 
16.998660990240676 
17.217090912055298 
4.667276164164047 
7.67952024178871 
12.647330651632245 
15.795253038587775 
17.65538781879138 
18.630806076386783 
18.991914988470107 
18.906696002220542 
18.46203439953788 
17.676302967107873 
16.554060328593486 
15.911575886030874 
9.805874753329114 
13.457054379482045 
18.898222342580915 
21.487118911969006 
22.513205504872765 
22.60888352961851 
22.109409530456208 
21.212156280675174 
20.032835313519456 
18.605747777788626 
16.77868251600338 
15.728663409127854 
</DataArray>
<DataArray type="Float64" Name="Nodal_sigma_xy" NumberOfComponents="1" format="ascii" >
2.7517794112520364 
1.6977177766209568 
0.5822092514874808 
1.0198645653131653 
2.234313420966653 
3.751383197676153 
5.318475194244058 
6.698065991452511 
7.660100351468564 
7.9847151170562185 
7.449237741158893 
6.936958033665322 
0.06423620620556014 
0.7207287347869568 
1.35148613120305 
1.7310294649153997 
2.7592036926058636 
4.095737624946129 
5.505526756432419 
6.775988835553582 
7.698978388337348 
8.072663989991945 
7.738967532834667 
7.380263908644229 
-3.620060422272998 
-1.1556950247165574 
1.8594504345290341 
2.794176951888298 
3.6906849621724724 
4.791345485004372 
5.971866040372317 
7.081575998067091 
7.957306108669321 
8.429716739464137 
8.384306679678993 
8.22492772915659 
-5.051744516349042 
-2.6482997743049106 
1.0731332881805817 
3.0635126513178355 
4.2969619954561695 
5.423905752147178 
6.548424667596699 
7.6120312431870545 
8.504027957000403 
9.083337530348265 
9.199671502080339 
9.12371949888849 
-5.687481134255098 
-3.6176376777683883 
0.05176611675949022 
2.6926879140367443 
4.4797126032153916 
5.867573810867985 
7.1036541659435075 
8.234913188260174 
9.212353359126666 
9.928227851125882 
10.221450788229472 
10.238862759249162 
-5.983092260412057 
-4.223947142436556 
-0.8303469861451894 
2.0774739903531887 
4.318135601286135 
6.072661172836396 
7.548569840852373 
8.85093267555801 
9.986850372696756 
10.889802925073273 
11.420399800487498 
11.570277755174464 
-6.1169753011031185 
-4.58307285143119 
-1.4777921822364584 
1.4729574992870509 
3.9921419180612174 
6.081272182393159 
7.850586602943567 
9.39622508544355 
10.755203797335351 
11.89929847610447 
12.72914185728277 
13.048227902075695 
-6.157345499249953 
-4.764845676954739 
-1.8847951039228827 
1.0076271519335214 
3.6577606673680547 
5.988766827737022 
8.031660892996031 
9.845241684930091 
11.467112143847341 
12.893027918057033 
14.064665753628141 
14.575827397177557 
-6.126471329677649 
-4.806698902761976 
-2.070230093250673 
0.7361483980770216 
3.4193912223812672 
5.89208941402541 
8.145719899581522 
10.205570454869758 
12.095332981826674 
13.818143832455327 
15.345401281793624 
16.054252861656103 
-6.027371184188578 
-4.726434574697186 
-2.054555231250859 
0.6763018536826582 
3.337724521376302 
5.86712745980091 
8.252541609495484 
10.504356291181413 
12.632737910608423 
14.63731632082444 
16.503510178070474 
17.399212090826605 
-5.855545214636455 
-4.53118939517319 
-1.8533955064706058 
0.830863804046515 
3.4455841301950674 
5.9663520044114815 
8.403326632633206 
10.774060801284246 
13.085031195857198 
15.328963175964873 
17.49136919341444 
18.5501852955543 
-5.605152859916711 
-4.22383309843535 
-1.477451611180534 
1.1994077974054953 
3.7630434816656138 
6.226645770265932 
8.63833310345419 
11.044249229889868 
13.462771163343737 
15.883085637463497 
18.28138248867409 
19.471893718818595 
-5.273915951444728 
-3.8084235312356602 
-0.9349618297851476 
1.78392467308568 
4.309448360851647 
6.681491048740057 
8.993643676801263 
11.341284974892396 
13.776155964008987 
16.294594958922957 
18.85949351627389 
20.147899176045698 
-4.868513708204583 
-3.295344305031977 
-0.2347896973988577 
2.5904248933978424 
5.110897848700062 
7.373359412916182 
9.514409837293517 
11.69642611992665 
14.034847524876046 
16.556084798916327 
19.213475383516737 
20.56726624552037 
-4.409808162838999 
-2.7037614242325745 
0.6145938543077443 
3.6295884083447074 
6.200367763636951 
8.35826347829685 
10.26846978722836 
12.16337128723022 
14.256295797557824 
16.65213270710241 
19.316799136128925 
20.70405560139738 
-3.9320150858718654 
-2.0495089323354145 
1.626131285990736 
4.927276208052974 
7.610019742338531 
9.685868118307994 
11.334877351781907 
12.832974483872679 
14.492541925307366 
16.562630714823975 
19.10579037098247 
20.488225081485744 
-3.447488804670398 
-1.2827011349407436 
2.92676539320862 
6.581600660742258 
9.359404559214907 
11.337194544367023 
12.71824755601143 
13.771578977137224 
14.837576734752016 
16.30738241970302 
18.468394454356137 
19.74317765639826 
-2.7919265854080035 
0.051540224038524984 
5.099245489000781 
8.837206804740562 
11.40237621691414 
13.099142671881925 
14.164658728747083 
14.799717802179975 
15.245262784816566 
15.872319961471751 
17.257752084135817 
18.226809093195293 
1.388404402223209 
4.391924073136891 
9.047128706542967 
11.678118700826737 
13.273030075217996 
14.27598931927303 
14.879167814601114 
15.1636711224151 
15.178790008681656 
15.01513129413972 
14.926423295313345 
14.947815183354411 
5.15894656069003 
7.823095129115481 
11.572743909743771 
13.199476954384235 
14.06159707543874 
14.588096150755547 
14.909833969177232 
15.03873303809339 
14.917931905431988 
14.431358433080813 
13.363567957281624 
12.64877678397781 
</DataArray>
</PointData>
<CellData>
</CellData>
<Points>
<DataArray type="Float64" Name="Points" NumberOfComponents="3" format="ascii">
0.0 50.0 0.0
0.0 45.4545441 0.0
0.0 40.9090919 0.0
0.0 36.363636 0.0
0.0 31.818182 0.0
0.0 27.272728 0.0
0.0 22.727272 0.0
0.0 18.181818 0.0
0.0 13.636364 0.0
0.0 9.090909 0.0
0.0 4.5454545 0.0
0.0 0.0 0.0
2.52631569 50.5263176 0.0
2.52631569 46.1435394 0.0
2.52631569 41.7607651 0.0
2.52631569 37.3779907 0.0
2.52631569 32.9952164 0.0
2.52631569 28.6124401 0.0
2.52631569 24.2296658 0.0
2.52631569 19.8468895 0.0
2.52631569 15.4641151 0.0
2.52631569 11.0813398 0.0
2.52631569 6.69856453 0.0
2.52631569 2.31578946 0.0
5.05263138 51.0526314 0.0
5.05263138 46.8325348 0.0
5.05263138 42.612442 0.0
5.05263138 38.3923454 0.0
5.05263138 34.1722488 0.0
5.05263138 29.9521523 0.0
5.05263138 25.7320576 0.0
5.05263138 21.511961 0.0
5.05263138 17.2918663 0.0
5.05263138 13.0717707 0.0
5.05263138 8.85167503 0.0
5.05263138 4.63157892 0.0
7.57894754 51.578949 0.0
7.57894754 47.5215302 0.0
7.57894754 43.4641151 0.0
7.57894754 39.4067001 0.0
7.57894754 35.3492813 0.0
7.57894754 31.2918663 0.0
7.57894754 27.2344494 0.0
7.57894754 23.1770344 0.0
7.57894754 19.1196175 0.0
7.57894754 15.0622005 0.0
7.57894754 11.0047846 0.0
7.57894754 6.94736862 0.0
10.1052628 52.1052628 0.0
10.1052628 48.2105255 0.0
10.1052628 44.3157883 0.0
10.1052628 40.421051 0.0
10.1052628 36.5263176 0.0
10.1052628 32.6315804 0.0
10.1052628 28.7368412 0.0
10.1052628 24.8421059 0.0
10.1052628 20.9473686 0.0
10.1052628 17.0526314 0.0
10.1052628 13.1578951 0.0
10.1052628 9.26315784 0.0
12.6315794 52.6315804 0.0
12.6315794 48.8995209 0.0
12.6315794 45.1674652 0.0
12.6315794 41.4354057 0.0
12.6315794 37.7033501 0.0
12.6315794 33.9712906 0.0
12.6315794 30.2392349 0.0
12.6315794 26.5071774 0.0
12.6315794 22.7751198 0.0
12.6315794 19.0430622 0.0
12.6315794 15.3110046 0.0
12.6315794 11.5789471 0.0
15.1578951 53.1578941 0.0
15.1578951 49.5885162 0.0
15.1578951 46.0191383 0.0
15.1578951 42.4497604 0.0
15.1578951 38.8803825 0.0
15.1578951 35.3110046 0.0
15.1578951 31.7416267 0.0
15.1578951 28.1722488 0.0
15.1578951 24.6028709 0.0
15.1578951 21.033493 0.0
15.1578951 17.4641151 0.0
15.1578951 13.8947372 0.0
17.6842098 53.6842117 0.0
17.6842098 50.2775116 0.0
17.6842098 46.8708153 0.0
17.6842098 43.4641151 0.0
17.6842098 40.057415 0.0
17.6842098 36.6507187 0.0
17.6842098 33.2440186 0.0
17.6842098 29.8373203 0.0
17.6842098 26.4306221 0.0
17.6842098 23.0239239 0.0
17.6842098 19.6172256 0.0
17.6842098 16.2105255 0.0
20.2105255 54.2105255 0.0
20.2105255 50.966507 0.0
20.2105255 47.7224884 0.0
20.2105255 44.4784698 0.0
20.2105255 41.2344513 0.0
20.2105255 37.9904289 0.0
20.2105255 34.7464104 0.0
20.2105255 31.5023918 0.0
20.2105255 28.2583733 0.0
20.2105255 25.0143547 0.0
20.2105255 21.7703342 0.0
20.2105255 18.5263157 0.0
22.7368412 54.7368431 0.0
22.7368412 51.6555023 0.0
22.7368412 48.5741615 0.0
22.7368412 45.4928246 0.0
22.7368412 42.4114838 0.0
22.7368412 39.330143 0.0
22.7368412 36.2488022 0.0
22.7368412 33.1674652 0.0
22.7368412 30.0861244 0.0
22.7368412 27.0047855 0.0
22.7368412 23.9234447 0.0
22.7368412 20.8421059 0.0
25.2631588 55.2631569 0.0
25.2631588 52.3444977 0.0
25.2631588 49.4258385 0.0
25.2631588 46.5071754 0.0
25.2631588 43.5885162 0.0
25.2631588 40.669857 0.0
25.2631588 37.7511978 0.0
25.2631588 34.8325348 0.0
25.2631588 31.9138756 0.0
25.2631588 28.9952145 0.0
25.2631588 26.0765553 0.0
25.2631588 23.1578941 0.0
27.7894745 55.7894745 0.0
27.7894745 53.033493 0.0
27.7894745 50.2775116 0.0
27.7894745 47.5215302 0.0
27.7894745 44.7655487 0.0
27.7894745 42.0095711 0.0
27.7894745 39.2535896 0.0
27.7894745 36.4976082 0.0
27.7894745 33.7416267 0.0
27.7894745 30.9856453 0.0
27.7894745 28.2296658 0.0
27.7894745 25.4736843 0.0
30.3157902 56.3157883 0.0
30.3157902 53.7224884 0.0
30.3157902 51.1291847 0.0
30.3157902 48.5358849 0.0