<?xml version="1.0"?>
<VTKFile type="UnstructuredGrid" version="0.1" byte_order="LittleEndian" compressor="vtkZLibDataCompressor">
<UnstructuredGrid>
<Piece NumberOfPoints="240" NumberOfCells="209">
<PointData>
<DataArray type="Float64" Name="displacement" NumberOfComponents="3" format="ascii" >
0.0 0.0  0.
0.0 0.0  0.
0.0 0.0  0.
0.0 0.0  0.
0.0 0.0  0.
0.0 0.0  0.
0.0 0.0  0.
0.0 0.0  0.
0.0 0.0  0.
0.0 0.0  0.
0.0 0.0  0.
0.0 0.0  0.
-0.6125323772252701 0.45219260684600443  0.
-0.2259691327615775 0.14181353349871378  0.
-0.1271101640950134 0.05119198531588644  0.
-0.05517437918302475 0.043963030918970816  0.
-0.003493754326185695 0.0673531377972477  0.
0.03549869701139739 0.10486285842869238  0.
0.062326141070603754 0.14677019263366317  0.
0.07724328182964339 0.1865815067778876  0.
0.08051951777285221 0.21846524441821208  0.
0.07301438386915683 0.23614606759986273  0.
0.05731942646796525 0.23281200001339356  0.
0.03212837366652128 0.19427780836288333  0.
-1.1388791759676118 0.6352028395317268  0.
-0.593873531001397 0.39592232802343297  0.
-0.3101475538709307 0.2319853049957823  0.
-0.14315789884080451 0.18653822392149638  0.
-0.02448096271714011 0.20473220092838226  0.
0.0618789084010204 0.25467736431016225  0.
0.12216404061601634 0.3175452238598626  0.
0.15805613322241077 0.38042576440698467  0.
0.1701713332802136 0.43281767787351044  0.
0.15928387441166103 0.4647024814351226  0.
0.12740237266594312 0.46550355635284024  0.
0.07746383543791246 0.4258397677668065  0.
-1.6145472101139366 0.8543245073064225  0.
-0.9859834932087619 0.6480649908521035  0.
-0.5629992352361871 0.49038013172843214  0.
-0.27898467611871186 0.4161892308892598  0.
-0.07932580157052513 0.41570393919857357  0.
0.06563096817103142 0.46023657122656547  0.
0.16793473276674328 0.5268012171928069  0.
0.2325990130135156 0.5980376252075178  0.
0.26133075341712414 0.6599175697478888  0.
0.2548233408476914 0.6998347261564936  0.
0.21443359839670986 0.7058071858362321  0.
0.14424925026952395 0.6678238468549045  0.
-2.076243734683409 1.0997267026482773  0.
-1.3861840664015503 0.9268596025063736  0.
-0.8577564015132105 0.789411243657775  0.
-0.4668321957737639 0.7116290274570094  0.
-0.1782707983644476 0.695458175716758  0.
0.03462898824285221 0.7265885052231698  0.
0.18810944282446057 0.7852388951219238  0.
0.29027590819069893 0.8532345055388142  0.
0.3446041960570584 0.9148078190707446  0.
0.35219768503655713 0.9558724912964696  0.
0.31376445610130205 0.9633889085870081  0.
0.2321415794912463 0.9257746581529218  0.
-2.5369818323083244 1.3809998676100268  0.
-1.7932398582054776 1.2386534224035872  0.
-1.1823831898040063 1.126853510434457  0.
-0.6994984778626533 1.0576206047442474  0.
-0.32519449575241266 1.0354006122123172  0.
-0.039652651052803294 1.053704442094139  0.
0.17233395381188196 1.0993251160402744  0.
0.320413418882293 1.1566935753599907  0.
0.40954304389797797 1.210526782538414  0.
0.44155393191832765 1.2464832775340489  0.
0.41675458443629876 1.2510684046668195  0.
0.33601841229841245 1.211549173794323  0.
-3.0047042668301454 1.7027478974932655  0.
-2.210451909205126 1.5901013292328299  0.
-1.5321634510072586 1.5045886971748867  0.
-0.9716874677722631 1.4500274128009987  0.
-0.5193508662638244 1.4291918432431399  0.
-0.16198743627567194 1.4392448008353664  0.
0.1125036317926112 1.471982932055444  0.
0.3131493788076671 1.5157986974544495  0.
0.4454433694844788 1.5576040762246781  0.
0.5117849855409 1.5840810566421368  0.
0.5123743487557861 1.5821393159535915  0.
0.4464819319463676 1.5388602365625415  0.
-3.4841718288045147 2.06938080883621  0.
-2.6420567004249182 1.986500291516151  0.
-1.9067267574326603 1.9268049421363873  0.
-1.2808169542501069 1.889388742068126  0.
-0.7595702861973106 1.8748119673622514  0.
-0.33461269926811477 1.8814458615834837  0.
0.0028364334394800233 1.9042669106121253  0.
0.26008680530412936 1.935160323269113  0.
0.4421264834884616 1.9638647079161644  0.
0.5514492473606244 1.9789784011828657  0.
0.5882707704434713 1.9686514193338145  0.
0.5509975151876746 1.9207599804563185  0.
-3.97836496275894 2.4851980594259104  0.
-3.092094734733287 2.4327042267422248  0.
-2.3078886164594365 2.398204820765063  0.
-1.6267297968231211 2.378696361522425  0.
-1.04563375523996 2.3731801486386797  0.
-0.559060014809379 2.380324557678615  0.
-0.16086415387265304 2.396976880495695  0.
0.15433026798863206 2.417649575525792  0.
0.390405893613372 2.434711489905994  0.
0.5494494960985181 2.4389806954796627  0.
0.6316337250963846 2.4203672552249196  0.
0.6351470895841466 2.368239005683721  0.
-4.488973613553186 2.954642535375021  0.
-3.564031990970024 2.9332974123845132  0.
-2.738442215998718 2.923530525910985  0.
-2.010959288832954 2.92197348600696  0.
-1.378627499045805 2.9270028393117857  0.
-0.8371919357632082 2.937482163866928  0.
-0.3822222137247631 2.951469478357566  0.
-0.009996614871006563 2.9653856008063078  0.
0.2820870805673374 2.97376341442747  0.
0.49537486169016315 2.969502719569952  0.
0.6298360538405081 2.94439077238949  0.
0.6837974883832436 2.8895727075008484  0.
-5.016645459408845 3.482280864574698  0.
-4.060566237072982 3.4926289907830586  0.
-3.2013870481254085 3.5072944911348474  0.
-2.436013831947723 3.523522943492692  0.
-1.7607682411311536 3.5398495457863417  0.
-1.1716297073100295 3.55557166094539  0.
-0.6650279069102762 3.5697529467745084  0.
-0.2384205270243267 3.580309150842494  0.
0.10959655675026793 3.583513053551814  0.
0.3794623642600903 3.574030216980007  0.
0.5707465023644541 3.5453443993645113  0.
0.6819668519915391 3.49029095629835  0.
-5.561203502210931 4.072672354749724  0.
-4.583469689619767 4.114740887792259  0.
-3.699353659312534 4.153600066132359  0.
-2.9047003632595865 4.187461389379356  0.
-2.194963491394227 4.215492880666877  0.
-1.565735514740343 4.2377123245144865  0.
-1.013597069133944 4.254232979319236  0.
-0.5366674014720553 4.264325866905273  0.
-0.13452902673379774 4.26575048994454  0.
0.1922729491311539 4.254631036415418  0.
0.44268892606040156 4.225833707006868  0.
0.6152411247006806 4.173562418121039  0.
-6.1218951725777995 4.730185587246402  0.
-5.1334897169761975 4.803293287571926  0.
-4.234140809958738 4.866026876562807  0.
-3.419456490385436 4.917433692386098  0.
-2.6842036565086747 4.957445978554239  0.
-2.023250151185529 4.986981343308275  0.
-1.4327489357984742 5.007328479804378  0.
-0.9109265408456104 5.019166575774646  0.
-0.4580662793515903 5.021690041103969  0.
-0.07573260563247398 5.012291859247854  0.
0.2341443789773598 4.986904717482738  0.
0.46973785811383517 4.940693212904662  0.
-6.697741641548984 5.4588418598054655  0.
-5.7103790540167605 5.561553217517787  0.
-4.806372520274062 5.647623809356713  0.
-3.9817369284191417 5.716475898612048  0.
-3.230829563784223 5.76866118585802  0.
-2.5476402828984686 5.806008639028795  0.
-1.9273814952193589 5.831068781278457  0.
-1.3677481925200317 5.846078988789988  0.
-0.8692767092362829 5.85181827528014  0.
-0.4345259703845393 5.846946607308085  0.
-0.06663002818550283 5.828240155752616  0.
0.23176127643171068 5.791422029353831  0.
-7.287989731645217 6.2623043302292  0.
-6.313155331990558 6.392569466559537  0.
-5.415405207971587 6.501097311586439  0.
-4.59157703567734 6.587082299092331  0.
-3.8358157250084504 6.6513914956579985  0.
-3.141198505422699 6.69669012426801  0.
-2.5016171456530887 6.726749035809219  0.
-1.913454401569242 6.745462579122012  0.
-1.3766846254180194 6.75552961090039  0.
-0.8945932753810509 6.757166117980935  0.
-0.4718657196124831 6.747935791091957  0.
-0.11261003704987228 6.72379190228864  0.
-7.892948405399277 7.144326365641767  0.
-6.940715730350662 7.299743308705319  0.
-6.059732944725698 7.429436138746937  0.
-5.247630833814654 7.531542707343709  0.
-4.498346540390778 7.607235014048782  0.
-3.804127287869407 7.659948971463518  0.
-3.157473115025246 7.6945957614021925  0.
-2.552853358675967 7.716551147032697  0.
-1.9882660764061844 7.730654464791041  0.
-1.4665828675096177 7.739487660328721  0.
-0.9942680576465449 7.741807103832767  0.
-0.5777469953401763 7.7334120296786075  0.
-8.51505368293108 8.109889298043683  0.
-7.593166556325577 8.288662497154776  0.
-6.738241331276998 8.437142112891935  0.
-5.94821025652268 8.552872733483861  0.
-5.216337111901631 8.63729066478072  0.
-4.534177702257921 8.695350146330691  0.
-3.8934021455307577 8.733049005422657  0.
-3.286740264019106 8.756817484827714  0.
-2.709278674765123 8.773087490702935  0.
-2.1603123115293563 8.787530192591975  0.
-1.6465113563965508 8.801827085640706  0.
-1.1782534462791807 8.812125338137859  0.
-9.163317993688569 9.170561142078  0.
-8.274450787298264 9.370498896773391  0.
-7.453534733026758 9.534436089867642  0.
-6.694758063190254 9.65607980257863  0.
-5.988927015010523 9.742350057570615  0.
-5.328010868428022 9.800370320104111  0.
-4.70402586632972 9.837230052358413  0.
-4.1091837139452885 9.859866423444718  0.
-3.5364398351502717 9.875320407131458  0.
-2.9805977679357913 9.890963514699425  0.
-2.4402658226917633 9.914699915525386  0.
-1.928266752571263 9.944132568928934  0.
-9.84902029986302 10.349072395539382  0.
-8.998860179713562 10.580869802510616  0.
-8.222119115244134 10.738494649601313  0.
-7.498733706022935 10.84828617758652  0.
-6.8219607756479235 10.9219522189105  0.
-6.18554032375563 10.96889972527787  0.
-5.5832806169899465 10.996714613792262  0.
-5.008485520517776 11.012042299890183  0.
-4.453934304030944 11.02130004556433  0.
-3.912270082824943 11.03152545177557  0.
-3.3766999953439303 11.051911481852644  0.
-2.838738954164789 11.105483069103478  0.
-10.622625560286943 11.795208781449602  0.
-9.83549178823385 11.956265920023334  0.
-9.088542415998853 12.063269221006161  0.
-8.390226740887798 12.129734102627776  0.
-7.7342866202894 12.168212343023557  0.
-7.116178160623756 12.186988925969395  0.
-6.531400332577591 12.192499248093622  0.
-5.975089027283712 12.190146409728108  0.
-5.441576636618491 12.18470573477106  0.
-4.923994494374016 12.180469422173706  0.
-4.41405930723773 12.180857473577781  0.
-3.9028129808925196 12.181258006454698  0.
</DataArray>
<DataArray type="Float64" Name="Nodal_sigma_xx" NumberOfComponents="1" format="ascii" >
-19.99744801147172 
-14.829891129959726 
-7.443074280536738 
-3.3687137173602077 
-0.046312519907937055 
2.553413860952242 
4.455335872513198 
5.608598902765756 
5.984360236837585 
5.624485204147906 
4.582417869536683 
3.8922201043219173 
-18.344781543021305 
-14.544938529189034 
-8.198516960400958 
-3.746198282830179 
-0.3162904847650252 
2.3793454260642264 
4.361511377339706 
5.6000351236452 
6.063561311814993 
5.770559464145903 
4.796882955022106 
4.151908451328101 
-15.938915480402422 
-13.796975376774617 
-9.086499287797126 
-4.511562491733001 
-0.8944818754416771 
1.9675400769657196 
4.113826963171682 
5.530620443325889 
6.185836686391441 
6.06731804806724 
5.245267871448529 
4.675103835440812 
-14.70930955852683 
-12.988014444309194 
-9.16428710890482 
-5.094846914658536 
-1.4846554817616908 
1.473675812624076 
3.7656505340524995 
5.364342596929369 
6.233516755356119 
6.345737250725859 
5.718751593022397 
5.226854422379029 
-13.926688343535448 
-12.370454757564364 
-8.986691794557368 
-5.364152190040791 
-1.9626569169309136 
0.9840549511291885 
3.3658704640722545 
5.1239693766970404 
6.207230039884415 
6.571254381922763 
6.191544649541967 
5.814561016197583 
-13.40658562732743 
-11.889166102959917 
-8.726171974897555 
-5.439477228857859 
-2.2783490702600733 
0.5666692512135525 
2.9703876748152265 
4.844520305582806 
6.12024614944392 
6.737057767434515 
6.641522699198088 
6.4094773444455875 
-13.024877462775285 
-11.508327679191988 
-8.455510771762414 
-5.40395626169952 
-2.4606349427374203 
0.250291002850663 
2.6221961306819668 
4.564096216876455 
5.9968442849505745 
6.849245654801017 
7.052200022020221 
6.982614116257313 
-12.700846478474118 
-11.181627861229593 
-8.196118397787458 
-5.3106954029446065 
-2.547568902373309 
0.02846349918709684 
2.3412908022884453 
4.312121725826768 
5.863677454139317 
6.922309017044021 
7.415082400545572 
7.510738279383643 
-12.371927950505954 
-10.863769083131066 
-7.942675574355234 
-5.186292940036708 
-2.5712765999448326 
-0.11819577154186817 
2.126947768530349 
4.1028728352104595 
5.741114414319832 
6.972579560324851 
7.72900943245921 
7.979921729861364 
-11.98558737317162 
-10.510718787433458 
-7.675439829161743 
-5.037549174017963 
-2.5525077726847947 
-0.21081733955580845 
1.9667110982868736 
3.9357994283437625 
5.638267998720556 
7.012067970092469 
7.99718752087392 
8.385286464040005 
-11.496302031791311 
-10.08021250031516 
-7.365709832356199 
-4.85628846332026 
-2.4997493494422365 
-0.2663876773485642 
1.8433063951671023 
3.799490321680045 
5.552195930908439 
7.044558389383287 
8.223241337287043 
8.72794679117829 
-10.865848246135366 
-9.532682108140367 
-6.97849200979556 
-4.622078321089093 
-2.4092282395487095 
-0.2947038320470681 
1.739239191587362 
3.675576539675801 
5.469336945254947 
7.064013426413189 
8.407411987099952 
9.01043609343569 
-10.064774391536025 
-8.832819516267461 
-6.474303785314118 
-4.3035706477537765 
-2.2645226365780755 
-0.2961192147628592 
1.6398843920786317 
3.5414120018544133 
5.366856286262239 
7.053868473791249 
8.54302480433956 
9.231561536317319 
-9.073818745749062 
-7.951069551221932 
-5.810765975331696 
-3.859385743363919 
-2.035533776832847 
-0.2586426938196325 
1.536574104747499 
3.371578558599656 
5.212252529987058 
6.985157601791457 
8.612420905679576 
9.380800486778856 
-7.883641043805417 
-6.863878373895362 
-4.943734569985221 
-3.239521406587404 
-1.6779295886909498 
-0.15342172477842392 
1.432569591159182 
3.140088811050775 
4.96030196444419 
6.810756000382394 
8.580310491184722 
9.431348120074468 
-6.490950195822348 
-5.548724077141193 
-3.8262036453088264 
-2.389682229398252 
-1.1365035073871415 
0.06843288470877981 
1.3563738884739256 
2.832464062338788 
4.549373578635296 
6.451442088994614 
8.380036183961685 
9.32733734192206 
-4.866366012849196 
-3.9662423281114805 
-2.4065967723598076 
-1.2616884826449841 
-0.36328516211506423 
0.46709208183785633 
1.3737732226628752 
2.4877312234990847 
3.9283537231675143 
5.7692156413378 
7.875489658218112 
8.95688705446151 
-2.8844419873093354 
-1.9777832066320453 
-0.6132397309255326 
0.13306864212471786 
0.6416081556690088 
1.0798088452584058 
1.570444594249277 
2.2306560042395454 
3.193469143673777 
4.629852397020748 
6.758472645639575 
8.025862265280132 
0.4454968577706745 
0.8212406476463399 
1.379461999704282 
1.646821361582595 
1.77979933730092 
1.87477786759267 
1.9981951590466323 
2.2191533120131535 
2.6294422301648304 
3.3577403080065307 
4.647659508640675 
5.475146333802776 
2.6708997807423476 
2.496680271343428 
2.370876206925149 
2.4045525482434704 
2.362270170820727 
2.308213337573748 
2.272109513972919 
2.293279296816996 
2.433307623772569 
2.7811641528566207 
3.3023756377310147 
3.5849988735185763 
</DataArray>
<DataArray type="Float64" Name="Nodal_sigma_yy" NumberOfComponents="1" format="ascii" >
-7.186606615054881 
-6.1055611578873155 
-4.319635334015304 
-2.7332941158743798 
-1.0798859182814746 
0.3335100782383559 
1.4465603871824295 
2.2021411642212514 
2.581714031245605 
2.6151641840660425 
2.3840375344134577 
2.2150544805066366 
-4.057125383643018 
-4.174821819818118 
-3.884117920207004 
-2.805366300680596 
-1.4483613170760623 
-0.14756582850034913 
0.9582288862028941 
1.7933321712767332 
2.3284295609446173 
2.581831056215889 
2.650020681397895 
2.656455841894544 
-0.930419588158113 
-1.7929709983998126 
-2.8103632697211167 
-2.6753434152002296 
-1.8972322527632515 
-0.871359610723933 
0.17348692729296805 
1.115798140368525 
1.8993324650504084 
2.517101007409207 
3.028530135838257 
3.2706381763289047 
-0.8332743196454266 
-1.1613167109018165 
-1.8419968930819755 
-2.1756875380239014 
-1.8708898312880915 
-1.1551160137023722 
-0.24332206001355086 
0.7168278185128918 
1.64137102627758 
2.494280311868115 
3.2623930033234485 
3.62386043528356 
-0.7198424031640358 
-0.9117025723399803 
-1.333389085235479 
-1.6429602222238222 
-1.5735559296690167 
-1.0982748999722332 
-0.3376196004691965 
0.5839440194355563 
1.57430740530812 
2.5760638723810088 
3.548841384176286 
4.023185550496333 
-0.7069440133682705 
-0.8164029759726311 
-1.0537916518316606 
-1.2317470586381107 
-1.1837356693254453 
-0.8272880993266108 
-0.18112852336228008 
0.6838836797321184 
1.6937627553922603 
2.7893646053706105 
3.9251952931249763 
4.4980400922966775 
-0.7126952288201867 
-0.7770941428377264 
-0.8850412089261931 
-0.9184048250418263 
-0.7979233089824264 
-0.45254346993429095 
0.14118882719532672 
0.9636198665324223 
1.9730502505040157 
3.125132457119249 
4.382196437830039 
5.032826994745684 
-0.7202608688677281 
-0.7504164373558235 
-0.7589852845031213 
-0.662625583953083 
-0.43829757710582695 
-0.043393948025288204 
0.5534934531887743 
1.361299872234363 
2.3687033365009045 
3.5530766469499167 
4.890997857878721 
5.595681603351006 
-0.7188321681155103 
-0.7158058402425018 
-0.6380671650141868 
-0.4299148255066185 
-0.09972850246970857 
0.36952597331596343 
1.0028615240608827 
1.82056076983183 
2.831491770960366 
4.032896677075058 
5.4161941092044525 
6.152145796420639 
-0.7024279757311671 
-0.6628444069823742 
-0.5021588593353284 
-0.1963877460732414 
0.23070698452381666 
0.7778111435050095 
1.4600820502791938 
2.299922971474239 
3.317442227067883 
4.524255353495821 
5.923672106885325 
6.671546412271704 
-0.6672772681024567 
-0.5867170074083017 
-0.34184222118733104 
0.05217904059170454 
0.5652124786541031 
1.1836289543291183 
1.9132123906276801 
2.7747985850084262 
3.7946063419052867 
4.994186575940183 
6.385506338098486 
7.129961091171732 
-0.6118133808746895 
-0.48672535061983535 
-0.15525648529078517 
0.321806404505622 
0.9119667951189174 
1.5925870339510486 
2.360835060482591 
3.234686866919833 
4.244575713463296 
5.420410525135561 
6.781715349952163 
7.510328526793218 
-0.5367512121282167 
-0.36560464504990636 
0.05386390487823892 
0.611934371595338 
1.274220831454711 
2.009821249825554 
2.806789624779478 
3.6789342605826496 
4.6604540109800965 
5.79075672516135 
7.098939463042833 
7.800100533912529 
-0.44481998739447637 
-0.2281297726697496 
0.27927083545113746 
0.9188730068021889 
1.6521601718830239 
2.4389183190703765 
3.2568820814674315 
4.112966759721877 
5.043657769239428 
6.100467943500837 
7.327169151559881 
7.987267518956269 
-0.33795326069930925 
-0.07730336269551832 
0.5195066176548018 
1.2454279801956336 
2.051184505125702 
2.8865000727669465 
3.718741630349101 
4.545881519556565 
5.401658023856767 
6.349330970686649 
7.4560752630558085 
8.056704458364495 
-0.21890661549038112 
0.09433849322319456 
0.7973253190579797 
1.6243980184734248 
2.5069955265347614 
3.381450788078432 
4.212217518757872 
4.991031258045678 
5.745268374412204 
6.5418455452674875 
7.471578108911663 
7.981734873682146 
-0.04276471384675232 
0.33623110516764176 
1.2039172346905476 
2.186543963700874 
3.144573604237157 
4.026773363719392 
4.810955980023868 
5.4928144800598435 
6.090783956246485 
6.671787867250687 
7.355945378951646 
7.7412860346557775 
0.10473177132374352 
0.7985586830463096 
2.125308186158197 
3.301922795435949 
4.293655984810476 
5.1009155699685085 
5.738993654719207 
6.222578906002902 
6.562734899542735 
6.782756161619282 
6.996655360166567 
7.125963709972205 
2.000408979997871 
2.9775853605926956 
4.647659645046437 
5.832130175510782 
6.655842175130887 
7.193388991614006 
7.500734487421047 
7.616759679073826 
7.5643371901871514 
7.342252524558843 
6.930494651999798 
6.674311816868206 
3.8628212062545266 
4.843195231787552 
6.501659077521256 
7.599518375672787 
8.2568991470037 
8.591793398081894 
8.674699726300474 
8.555303197279269 
8.269865535561184 
7.837605240383477 
7.1306900324073865 
6.675617357432577 
</DataArray>
<DataArray type="Float64" Name="Nodal_sigma_xy" NumberOfComponents="1" format="ascii" >
2.5323666960616125 
1.5958243934095906 
0.4003644653826569 
0.29535595304025214 
0.7513725519344245 
1.4173108768663325 
2.143342339154275 
2.815489942408348 
3.330469077060116 
3.5756885320353837 
3.3978848597987783 
3.1798938872022995 
0.6345981621805963 
0.760243252988476 
0.753603089384303 
0.7364237929774182 
1.1027989942999674 
1.6689118782193222 
2.305421923736759 
2.907586623558824 
3.3795874457951465 
3.6196066617375386 
3.5214389864574978 
3.3747546225647858 
-1.6478673402981194 
-0.5086265175900653 
0.9107765270217643 
1.3429042457948992 
1.697262820588064 
2.1457824594555346 
2.6504213507835055 
3.1434372075673322 
3.550869066359098 
3.79400574345721 
3.813230350002868 
3.7622466118426567 
-2.187900199950029 
-1.177154156980976 
0.4743923548140538 
1.453211024208085 
2.042169351225166 
2.5311795512537825 
3.0028638346944394 
3.450788741126509 
3.8356545433390665 
4.103207816944179 
4.193436986701619 
4.186667988495501 
-2.3952587843503417 
-1.5355225263272647 
0.04848975750396656 
1.278215700042121 
2.1378154154063838 
2.77433119637858 
3.3041726093189663 
3.771737758823725 
4.17555935474099 
4.4866129487254565 
4.652279094220414 
4.690623522745864 
-2.4547361287205676 
-1.7134784426827832 
-0.25484299349012607 
1.047264258900761 
2.081273388192878 
2.88184173105571 
3.5235512070124764 
4.063480121753724 
4.525533706817551 
4.904269428511779 
5.165275907740777 
5.260092108748166 
-2.4447086901510264 
-1.777671730680402 
-0.4281335133182893 
0.863969507543809 
1.9815025900224046 
2.9047349823935145 
3.665073910299551 
4.304831055746595 
4.8544129458009815 
5.323869858666388 
5.699216291302975 
5.85996841072441 
-2.3908815479850762 
-1.7620899457476284 
-0.48576570340863595 
0.7680515843744864 
1.909117910149774 
2.9034351493196366 
3.7579036258220757 
4.49727023496974 
5.146433633495019 
5.720707998696497 
6.221041348638866 
6.451830038183658 
-2.300402206382671 
-1.6833290412912016 
-0.44408721416580194 
0.7701385399104732 
1.9022310511821023 
2.924965025293044 
3.8385485839837648 
4.65782297858889 
5.40042969793904 
6.080131982909192 
6.704522095763332 
7.003427252201407 
-2.1741564341185335 
-1.5499808492824139 
-0.3169426319677421 
0.868449283690501 
1.977940516290497 
2.999419682906542 
3.9382646612990992 
4.808734779569597 
5.6250838610534855 
6.397627537897813 
7.133806739299233 
7.493648988266534 
-2.01192869203286 
-1.3677160386903922 
-0.11609782841924698 
1.0561306153364827 
2.141230740663128 
3.1431702080657806 
4.078869934364688 
4.9697854322629205 
5.832606891691947 
6.675827352351209 
7.503154522784348 
7.913204691484868 
-1.8142063912475006 
-1.14162879982109 
0.14775958419485238 
1.3243018444924508 
2.3906521817501147 
3.3634448680712756 
4.273410393081559 
5.15499793101595 
6.033677457841002 
6.919978747901279 
7.8134107231295244 
8.261425105426873 
-1.5826087742848691 
-0.8769547424431043 
0.4646918297434842 
1.663605291125853 
2.7218667814305983 
3.6625016542734947 
4.528980261633979 
5.372671696495486 
6.23466994147312 
7.1334838607183375 
8.066615113819177 
8.540423561575718 
-1.3199663284660228 
-0.5788846565043065 
0.8262695753668545 
2.0656482141744577 
3.129928757162284 
4.04086501095945 
4.850336668169911 
5.627695498133466 
6.437085372423125 
7.314211844708745 
8.259892462699638 
8.747987520233975 
-1.0299821532221995 
-0.2510769638267935 
1.2283912805959 
2.5253095252724878 
3.6103370237230505 
4.498178546910307 
5.2425702714657305 
5.925776917634206 
6.639643198122927 
7.452040633882752 
8.37902123987773 
8.86948655460256 
-0.7136600358646072 
0.11060629853741402 
1.6795819951511934 
3.0460916560881772 
4.158699898549504 
5.027757750437985 
5.705840818345281 
6.275487561520248 
6.845575472465301 
7.529944853475211 
8.39120392060466 
8.868367934249198 
-0.3545692041341114 
0.5397687639963675 
2.228565165126188 
3.6551577635296635 
4.767588420032739 
5.600830822098182 
6.20985300702719 
6.66482556601266 
7.0623595222825735 
7.53994031733329 
8.243062110184427 
8.6672407792318 
0.15004666892879245 
1.2012617718916083 
3.0383980845285654 
4.405144978633561 
5.410707715012051 
6.1386693771062415 
6.649343193320371 
6.9930779783689 
7.228802457946775 
7.454883324407597 
7.874470268211772 
8.167415246152045 
1.8480028368632615 
2.762483183331818 
4.269689281976132 
5.269881905280577 
5.965573489807967 
6.4572737373701266 
6.79731466126913 
7.01229776072171 
7.116179735850907 
7.120607433161334 
7.053752145481281 
7.007933425902964 
3.2354451505616346 
3.9007442215709136 
5.000028328364214 
5.716808865633187 
6.1956117923828256 
6.52979814268357 
6.761078868483343 
6.903623750081483 
6.949061883230347 
6.859852365884442 
6.479636099704709 
6.184624403185321 
</DataArray>
</PointData>
<CellData>
</CellData>
<Points>
<DataArray type="Float64" Name="Points" NumberOfComponents="3" format="ascii">
0.0 50.0 0.0
0.0 45.4545441 0.0
0.0 40.9090919 0.0
0.0 36.363636 0.0
0.0 31.818182 0.0
0.0 27.272728 0.0
0.0 22.727272 0.0
0.0 18.181818 0.0
0.0 13.636364 0.0
0.0 9.090909 0.0
0.0 4.5454545 0.0
0.0 0.0 0.0
2.52631569 50.5263176 0.0
2.52631569 46.1435394 0.0
2.52631569 41.7607651 0.0
2.52631569 37.3779907 0.0
2.52631569 32.9952164 0.0
2.52631569 28.6124401 0.0
2.52631569 24.2296658 0.0
2.52631569 19.8468895 0.0
2.52631569 15.4641151 0.0
2.52631569 11.0813398 0.0
2.52631569 6.69856453 0.0
2.52631569 2.31578946 0.0
5.05263138 51.0526314 0.0
5.05263138 46.8325348 0.0
5.05263138 42.612442 0.0
5.05263138 38.3923454 0.0
5.05263138 34.1722488 0.0
5.05263138 29.9521523 0.0
5.05263138 25.7320576 0.0
5.05263138 21.511961 0.0
5.05263138 17.2918663 0.0
5.05263138 13.0717707 0.0
5.05263138 8.85167503 0.0
5.05263138 4.63157892 0.0
7.57894754 51.578949 0.0
7.57894754 47.5215302 0.0
7.57894754 43.4641151 0.0
7.57894754 39.4067001 0.0
7.57894754 35.3492813 0.0
7.57894754 31.2918663 0.0
7.57894754 27.2344494 0.0
7.57894754 23.1770344 0.0
7.57894754 19.1196175 0.0
7.57894754 15.0622005 0.0
7.57894754 11.0047846 0.0
7.57894754 6.94736862 0.0
10.1052628 52.1052628 0.0
10.1052628 48.2105255 0.0
10.1052628 44.3157883 0.0
10.1052628 40.421051 0.0
10.1052628 36.5263176 0.0
10.1052628 32.6315804 0.0
10.1052628 28.7368412 0.0
10.1052628 24.8421059 0.0
10.1052628 20.9473686 0.0
10.1052628 17.0526314 0.0
10.1052628 13.1578951 0.0
10.1052628 9.26315784 0.0
12.6315794 52.6315804 0.0
12.6315794 48.8995209 0.0
12.6315794 45.1674652 0.0
12.6315794 41.4354057 0.0
12.6315794 37.7033501 0.0
12.6315794 33.9712906 0.0
12.6315794 30.2392349 0.0
12.6315794 26.5071774 0.0
12.6315794 22.7751198 0.0
12.6315794 19.0430622 0.0
12.6315794 15.3110046 0.0
12.6315794 11.5789471 0.0
15.1578951 53.1578941 0.0
15.1578951 49.5885162 0.0
15.1578951 46.0191383 0.0
15.1578951 42.4497604 0.0
15.1578951 38.8803825 0.0
15.1578951 35.3110046 0.0
15.1578951 31.7416267 0.0
15.1578951 28.1722488 0.0
15.1578951 24.6028709 0.0
15.1578951 21.033493 0.0
15.1578951 17.4641151 0.0
15.1578951 13.8947372 0.0
17.6842098 53.6842117 0.0
17.6842098 50.2775116 0.0
17.6842098 46.8708153 0.0
17.6842098 43.4641151 0.0
17.6842098 40.057415 0.0
17.6842098 36.6507187 0.0
17.6842098 33.2440186 0.0
17.6842098 29.8373203 0.0
17.6842098 26.4306221 0.0
17.6842098 23.0239239 0.0
17.6842098 19.6172256 0.0
17.6842098 16.2105255 0.0
20.2105255 54.2105255 0.0
20.2105255 50.966507 0.0
20.2105255 47.7224884 0.0
20.2105255 44.4784698 0.0
20.2105255 41.2344513 0.0
20.2105255 37.9904289 0.0
20.2105255 34.7464104 0.0
20.2105255 31.5023918 0.0
20.2105255 28.2583733 0.0
20.2105255 25.0143547 0.0
20.2105255 21.7703342 0.0
20.2105255 18.5263157 0.0
22.7368412 54.7368431 0.0
22.7368412 51.6555023 0.0
22.7368412 48.5741615 0.0
22.7368412 45.4928246 0.0
22.7368412 42.4114838 0.0
22.7368412 39.330143 0.0
22.7368412 36.2488022 0.0
22.7368412 33.1674652 0.0
22.7368412 30.0861244 0.0
22.7368412 27.0047855 0.0
22.7368412 23.9234447 0.0
22.7368412 20.8421059 0.0
25.2631588 55.2631569 0.0
25.2631588 52.3444977 0.0
25.2631588 49.4258385 0.0
25.2631588 46.5071754 0.0
25.2631588 43.5885162 0.0
25.2631588 40.669857 0.0
25.2631588 37.7511978 0.0
25.2631588 34.8325348 0.0
25.2631588 31.9138756 0.0
25.2631588 28.9952145 0.0
25.2631588 26.0765553 0.0
25.2631588 23.1578941 0.0
27.7894745 55.7894745 0.0
27.7894745 53.033493 0.0
27.7894745 50.2775116 0.0
27.7894745 47.5215302 0.0
27.7894745 44.7655487 0.0
27.7894745 42.0095711 0.0
27.7894745 39.2535896 0.0
27.7894745 36.4976082 0.0
27.7894745 33.7416267 0.0
27.7894745 30.9856453 0.0
27.7894745 28.2296658 0.0
27.7894745 25.4736843 0.0
30.3157902 56.3157883 0.0
30.3157902 53.7224884 0.0
30.3157902 51.1291847 0.0
30.3157902 48.5358849 0.0
30.3157902 45.942585 0.0
30.3157902 43.3492813 0.0
30.3157902 40.7559814 0.0
30.3157902 38.1626778 0.0
30.3157902 35.5693779 0.0
30.3157902 32.976078 0.0
30.3157902 30.3827744 0.0
30.3157902 27.7894745 0.0
32.8421059 56.8421059 0.0
32.8421059 54.4114838 0.0
32.8421059 51.9808617 0.0
32.8421059 49.5502396 0.0
32.8421059 47.1196175 0.0
32.8421059 44.6889954 0.0
32.8421059 42.2583733 0.0
32.8421059 39.8277512 0.0
32.8421059 37.3971291 0.0
32.8421059 34.966507 0.0
32.8421059 32.5358849 0.0
32.8421059 30.1052628 0.0
35.3684196 57.3684196 0.0
35.3684196 55.1004791 0.0
35.3684196 52.8325348 0.0
35.3684196 50.5645943 0.0
35.3684196 48.2966499 0.0
35.3684196 46.0287094 0.0
35.3684196 43.7607651 0.0
35.3684196 41.4928246 0.0
35.3684196 39.2248802 0.0
35.3684196 36.9569397 0.0
35.3684196 34.6889954 0.0
35.3684196 32.421051 0.0
37.8947372 57.8947372 0.0
37.8947372 55.7894745 0.0
37.8947372 53.6842117 0.0
37.8947372 51.578949 0.0
37.8947372 49.4736824 0.0
37.8947372 47.3684196 0.0
37.8947372 45.2631569 0.0
37.8947372 43.1578941 0.0
37.8947372 41.0526314 0.0
37.8947372 38.9473686 0.0
37.8947372 36.8421059 0.0
37.8947372 34.7368431 0.0
40.421051 58.421051 0.0
40.421051 56.4784698 0.0
40.421051 54.5358849 0.0
40.421051 52.5932999 0.0
40.421051 50.6507187 0.0
40.421051 48.7081337 0.0
40.421051 46.7655487 0.0
40.421051 44.8229675 0.0
40.421051 42.8803825 0.0
40.421051 40.9377975 0.0
40.421051 38.9952164 0.0
40.421051 37.0526314 0.0
42.9473686 58.9473686 0.0
42.9473686 57.1674652 0.0
42.9473686 55.387558 0.0
42.9473686 53.6076546 0.0
42.9473686 51.8277512 0.0
42.9473686 50.0478477 0.0