<?xml version="1.0"?>
<VTKFile type="UnstructuredGrid" version="0.1" byte_order="LittleEndian" compressor="vtkZLibDataCompressor">
<UnstructuredGrid>
<Piece NumberOfPoints="240" NumberOfCells="209">
<PointData>
<DataArray type="Float64" Name="displacement" NumberOfComponents="3" format="ascii" >
0.0 0.0  0.
0.0 0.0  0.
0.0 0.0  0.
0.0 0.0  0.
0.0 0.0  0.
0.0 0.0  0.
0.0 0.0  0.
0.0 0.0  0.
0.0 0.0  0.
0.0 0.0  0.
0.0 0.0  0.
0.0 0.0  0.
-0.47810994412400193 0.0665350600956435  0.
-0.21567134742634678 0.03196858557711834  0.
-0.11758489408280458 0.056067353691565604  0.
-0.03990999964814861 0.08372213529139005  0.
0.019443436014368324 0.10897886211139872  0.
0.06434726917444507 0.1303163431406955  0.
0.09551889178084329 0.14620383652559116  0.
0.11316611133290665 0.15531818074013248  0.
0.11737706934098455 0.15615004706228436  0.
0.10849009639656235 0.1467944216812201  0.
0.08727866840128722 0.12452978534662959  0.
0.05032070720642879 0.08035507429247213  0.
-0.9087039043342698 0.19420814519669888  0.
-0.49085725225047727 0.16904551965944423  0.
-0.262962032046114 0.17798852263023698  0.
-0.10620915450664505 0.2135469653346815  0.
0.015878378444057935 0.25109059883509194  0.
0.10928242925729202 0.2839453914077877  0.
0.17661945921850244 0.30848839337593637  0.
0.21842123930352528 0.3219133151272866  0.
0.2347144553124038 0.32160342878875203  0.
0.22568356002014733 0.3046885030877641  0.
0.19201884705826966 0.26754416595860514  0.
0.13343389150516585 0.20488367736896718  0.
-1.3102740228991994 0.37699654261221427  0.
-0.7948156099782048 0.36409372455412997  0.
-0.4499603766478987 0.368116043645948  0.
-0.20461334555732255 0.39684661258699616  0.
-0.016333629150951847 0.435265528993367  0.
0.1298205377583418 0.47089666861523727  0.
0.2383942974039062 0.4974397900803704  0.
0.31083016504357924 0.5105856913043803  0.
0.3472152784959245 0.5067506249344684  0.
0.3474352136936884 0.48249386530881166  0.
0.3119225886829476 0.43420397765158986  0.
0.2419240624845321 0.35816539551331467  0.
-1.6969563829356304 0.6055316113853471  0.
-1.1141682266849067 0.6059310807054735  0.
-0.6739419960103855 0.6127231253251361  0.
-0.34116922341729183 0.6353286212651296  0.
-0.08246771099791268 0.6676851034897032  0.
0.12051539884316778 0.6994240266532856  0.
0.27539080295414087 0.722485772038665  0.
0.38476043505353247 0.7313039455961188  0.
0.44908321405284146 0.7214868696552238  0.
0.4680384938423295 0.6891593767658315  0.
0.4415730656772886 0.6306718632243862  0.
0.37086132683581746 0.5427249346018131  0.
-2.078538518150191 0.8769085712397331  0.
-1.4444430348156394 0.8906605835465669  0.
-0.9283625833896186 0.9047557133541816  0.
-0.5162937981952583 0.9253968957481171  0.
-0.18687813740477419 0.9511415260233493  0.
0.07617065276985219 0.9755515344761029  0.
0.28184403963909566 0.9914939643107927  0.
0.43399563864931273 0.9929824622434845  0.
0.5336327732344949 0.9751515687774429  0.
0.5804171027136233 0.9338089170513957  0.
0.5737688743481492 0.8651684955486965  0.
0.5139852929566404 0.7658583882925428  0.
-2.461835360000067 1.191005109040617  0.
-1.7854737276740462 1.2180490192933102  0.
-1.2086740660195132 1.2416905462201389  0.
-0.7279306376779074 1.264323925175169  0.
-0.33151390940204417 1.2858823979602076  0.
-0.007570965342012694 1.3029716899753614  0.
0.2521482053944639 1.3104885450735337  0.
0.4520057016713336 1.3031663557892563  0.
0.5935093910214589 1.2762174010732104  0.
0.6764384074631209 1.2253700169075357  0.
0.6998163541090068 1.1467401630624583  0.
0.6629053574690865 1.0367783655116092  0.
-2.8517377534212183 1.5491914144668033  0.
-2.138938780607503 1.5895994260845563  0.
-1.5127426912231208 1.6238163820646605  0.
-0.9738647695756736 1.6512976827824888  0.
-0.5166858861469472 1.6718200480459353  0.
-0.13372680469788634 1.683676996600436  0.
0.1813016586453504 1.683667148158377  0.
0.43233065454423436 1.667797777834165  0.
0.6210020522958534 1.631910529662125  0.
0.7472146416813515 1.5719878742265574  0.
0.8097758088955517 1.4842206142016479  0.
0.807126310736488 1.3649851650304323  0.
-3.251860498025009 1.9537067109550437  0.
-2.507172052353962 2.0077111398408687  0.
-1.840272579298059 2.0529832907587755  0.
-1.2527586590958064 2.0871726446990033  0.
-0.7421690751723539 2.1094986694956015  0.
-0.30423911582227176 2.118997650018614  0.
0.06516115126515128 2.1138093004713765  0.
0.3689300385404799 2.091205807941651  0.
0.6083988754720051 2.047925550200637  0.
0.7834446364914713 1.9804935044558338  0.
0.8927890549596134 1.8854007026746453  0.
0.9343996715746414 1.759149169403212  0.
-3.6649162294871154 2.4073383256920837  0.
-2.8926130875207554 2.4752683790310788  0.
-2.1921438837485367 2.5318570842769725  0.
-1.5643713238260273 2.573925520016483  0.
-1.007971954581627 2.600277625176662  0.
-0.5205444432041694 2.610260921015575  0.
-0.09967335655823677 2.6028596481813886  0.
0.2563648830403896 2.5763487097407705  0.
0.548293635043006 2.5283504574533544  0.
0.7757798483152157 2.4560574288413677  0.
0.9375011277676579 2.356433045239225  0.
1.031272011589675 2.2263057388968677  0.
-4.092906440010725 2.913226160816417  0.
-3.2975441176924214 2.9954105327947227  0.
-2.569875966355348 3.0634929432397904  0.
-1.9093923673933257 3.1141781287186827  0.
-1.3146909383134533 3.1461672352427064  0.
-0.7840845908063396 3.1590459816645207  0.
-0.3161896101327715 3.1523774725704423  0.
0.08974637241727394 3.125180677936315  0.
0.43375114481222937 3.0758109762951804  0.
0.715140729864614 3.0020934037557003  0.
0.9325195719308943 2.901516966946122  0.
1.0837557498966952 2.7713599199823458  0.
-4.537240376041422 3.474715093398025  0.
-3.723939061519743 3.571379049563035  0.
-2.975217062760101 3.651086044451406  0.
-2.2891301933406214 3.710854963248965  0.
-1.663535790769957 3.7495757982590865  0.
-1.0966135804725567 3.7671809342327864  0.
-0.5873140264480967 3.7637691806380866  0.
-0.13548493211140206 3.7389742174392193  0.
0.2582887597264667 3.6917342438876903  0.
0.5928977841191089 3.6203842372495973  0.
0.866805743164234 3.52287308917379  0.
1.0780032987300687 3.3969334909602464  0.
-4.998829322793514 4.095243195276615  0.
-4.173362858082478 4.206422529610653  0.
-3.4098245315314437 4.297837654968193  0.
-2.7051350265870617 4.36697490128109  0.
-2.0561326469011436 4.413095526111192  0.
-1.4602575269186364 4.436639807206706  0.
-0.916155485490126 4.4383547123564  0.
-0.42382420210088617 4.418525483870433  0.
0.01570752621546965 4.376612620864666  0.
0.4008744476982039 4.311333209427486  0.
0.7298969568462923 4.220947516543099  0.
1.000830760124053 4.103529356309039  0.
-5.478273772406577 4.778280935402799  0.
-4.646923779968604 4.9037842478313065  0.
-3.8749944404123644 5.00693063905736  0.
-3.1588006094220287 5.085558365825788  0.
-2.494142226035329 5.139363686422267  0.
-1.8773153752025367 5.169430936742743  0.
-1.3060378895275069 5.177338898051169  0.
-0.7799094130301745 5.164222987578057  0.
-0.30015382798467605 5.130166995902835  0.
0.1311788225380404 5.074191760320117  0.
0.5118977564147529 4.994696661918497  0.
0.8399549233715605 4.889873161697861  0.
-5.976245511828797 5.527417031203848  0.
-5.145364614448716 5.666908199486999  0.
-4.371497983556178 5.781704900851969  0.
-3.650990061538191 5.869699274255044  0.
-2.978747704156206 5.931017073621251  0.
-2.349728227677384 5.967513670004022  0.
-1.7601781111239772 5.9817613450170235  0.
-1.2085197542361272 5.976020785468414  0.
-0.6956341640467948 5.951328637366029  0.
-0.22409206930962636 5.907137219233227  0.
0.2032424758740561 5.841748799594557  0.
0.5838902159341022 5.753217292353281  0.
-6.494359725334661 6.346928745360445  0.
-5.669469202197244 6.50011303532997  0.
-4.899714321446866 6.626325102000848  0.
-4.18188610879763 6.722955898680409  0.
-3.5101718652911957 6.790802792985814  0.
-2.878258572133443 6.832699576584893  0.
-2.2806994938614285 6.852362427254287  0.
-1.7139539820616618 6.853343542925761  0.
-1.1772786717778478 6.838080042860499  0.
-0.6731554945055965 6.806923007946107  0.
-0.20574161244974515 6.758257645238947  0.
0.22152298030821116 6.689288604655718  0.
-7.036734588597448 7.2430934772952345  0.
-6.221159151008608 7.410756850113029  0.
-5.460420703803332 7.547354715305652  0.
-4.751496516449086 7.650507067189553  0.
-4.087758317019694 7.722049502454918  0.
-3.4618661270193347 7.7665598377188685  0.
-2.867059896476943 7.789118770850673  0.
-2.297776977871407 7.794556036537248  0.
-1.7504562581538914 7.7868982734897605  0.
-1.224791691384476 7.768389716992029  0.
-0.7253579871905477 7.7375629374868895  0.
-0.25857460001961297 7.691586663450479  0.
-7.61381684172373 8.230217344989878  0.
-6.805703875995074 8.413172289850587  0.
-6.057002554143072 8.55840901543072  0.
-5.361845287605508 8.66148299344276  0.
-4.71154241043931 8.729803230995987  0.
-4.09845293464171 8.770689035767159  0.
-3.5154138406097997 8.790740107743014  0.
-2.955774665520867 8.795770265442044  0.
-2.413687843014375 8.791019491176682  0.
-1.8847173664192005 8.781217006921256  0.
-1.3673146770329618 8.769412982226205  0.
-0.8691031094328658 8.747711215964886  0.
-8.247061573304528 9.338420006682636  0.
-7.437397132695591 9.550544180928632  0.
-6.702813263643612 9.685028922996834  0.
-6.021909088089297 9.770994026100967  0.
-5.386084480541033 9.821682660260539  0.
-4.788023965990991 9.84714218645234  0.
-4.221066465039801 9.854889046271124  0.
-3.6786888485747347 9.850849066188484  0.
-3.154360050186351 9.840114976665273  0.
-2.64165252293646 9.827822273376476  0.
-2.1343105847265305 9.821135194373959  0.
-1.624429184655503 9.836767696075924  0.
-8.941775925610687 10.73654804408525  0.
-8.159550341699495 10.874054687572748  0.
-7.427133698610192 10.955148296150723  0.
-6.751585658391414 10.993072629499222  0.
-6.123873906514209 11.00366752059057  0.
-5.536589215458364 10.996384756574074  0.
-4.983363083642376 10.97773328838289  0.
-4.458342154776849 10.95261870995459  0.
-3.9556661021151025 10.924909706974994  0.
-3.469039958208722 10.8974907618728  0.
-2.991589100483807 10.871496274185493  0.
-2.5165900220609747 10.842755915935335  0.
</DataArray>
<DataArray type="Float64" Name="Nodal_sigma_xx" NumberOfComponents="1" format="ascii" >
-18.93950229102394 
-13.4605058124741 
-5.676052208900075 
-1.7667785072213833 
0.9563844754907356 
2.833163834802048 
4.040150660229044 
4.659922963844558 
4.73662335672216 
4.296105084578535 
3.2886307577901794 
2.6281566645808336 
-17.818435259772514 
-13.192758083215432 
-6.082415373086151 
-1.978962491426278 
0.7810934968832106 
2.7007215395538093 
3.9531837278163344 
4.625782893893857 
4.761887263017348 
4.383703503567897 
3.46828286579412 
2.8686539763295027 
-15.839598204951049 
-12.568929861604651 
-6.726725824005122 
-2.470309211664914 
0.39996509474794867 
2.4095137315146364 
3.7593104700371027 
4.542838603015788 
4.804759789370404 
4.563985641173048 
3.8287263244446073 
3.338275699371021 
-14.34191959241485 
-11.853896058464432 
-7.040790218165857 
-2.989945520585569 
-0.03284196753146548 
2.0717849216111626 
3.526086128171085 
4.428895054675766 
4.827971715175254 
4.743223501217159 
4.18554027864174 
3.7898884832584887 
-13.225868900432406 
-11.171400690038917 
-7.08623472807193 
-3.390896602892207 
-0.4688869223666917 
1.7058570570766987 
3.2593125576480064 
4.282721971836207 
4.82403107583639 
4.903518609236513 
4.5279364160088615 
4.226847207240279 
-12.38847171519508 
-10.569147504459835 
-6.966305361510788 
-3.6332733952753173 
-0.8425588266676174 
1.3441017928103651 
2.9739981920429326 
4.108748430027237 
4.789491685084597 
5.034637226117271 
4.846493477867787 
4.6436335199993 
-11.740834769549654 
-10.050528716782946 
-6.760128314946993 
-3.7360018411138958 
-1.1195114188892594 
1.0227720243879588 
2.6923594546504415 
3.918065058113778 
4.726806593119116 
5.132156300797887 
5.132867059810419 
5.0310263271322295 
-11.210393961245813 
-9.59662289147589 
-6.514316326343933 
-3.7353418931520648 
-1.2966768551795975 
0.7649201556455256 
2.4370290581990672 
3.726042930662545 
4.643689619546104 
5.196602544299234 
5.380715168424906 
5.379285676088584 
-10.737409209604353 
-9.178938711428156 
-6.249462545505503 
-3.664121661228457 
-1.3885325382601332 
0.5764154421795264 
2.2229330074089084 
3.5474357737201343 
4.550532840689907 
5.2322465974763155 
5.586492955893108 
5.680443349409494 
-10.27119484550973 
-8.765376037570459 
-5.968193708942408 
-3.5444167532444366 
-1.4147676497537571 
0.4501671486327391 
2.053995543393586 
3.3913914813749346 
4.456667910276914 
5.245053645608461 
5.749520959848393 
5.929612294533246 
-9.767567251179248 
-8.322771298727787 
-5.660997508706374 
-3.3863432491214036 
-1.3926494021317268 
0.37239570106564207 
1.924188652993318 
3.2588017849167854 
4.366841134741958 
5.240041096028174 
5.871136463593416 
6.125223361479112 
-9.187943013124858 
-7.818102154481526 
-5.309464111475547 
-3.1884992086050232 
-1.3328979913508698 
0.3279799638416716 
1.8204451658439913 
3.1419551527455116 
4.278903205653297 
5.2186797922274915 
5.953088511982578 
6.268179456725791 
-8.500167659543806 
-7.219540475134792 
-4.8875831666267295 
-2.937879827693452 
-1.2368282044155405 
0.3046365765189427 
1.725646104185797 
3.0251324327151417 
4.182421224899743 
5.176614270200264 
5.995414593957967 
6.36004749124646 
-7.680745373386451 
-6.497866941853026 
-4.362089045118615 
-2.608843645254763 
-1.0928639006098688 
0.29762062407534434 
1.62166153444986 
2.88477677452747 
4.056827931681004 
5.100968480674263 
5.993669898583617 
6.400356880246968 
-6.716762545595087 
-5.627665389870854 
-3.693039263616229 
-2.162733532549083 
-0.8726674875513719 
0.3174288482755383 
1.4959800814988344 
2.6897500082283825 
3.866878665868612 
4.965053505330932 
5.9342746568213345 
6.382423881617439 
-5.6019804314789186 
-4.584673215905536 
-2.8353665832389066 
-1.552393979494707 
-0.5322321041235197 
0.3980999466547843 
1.358498396992252 
2.4119687706100734 
3.5558289310157623 
4.714467645942865 
5.78419867417794 
6.284935862553177 
-4.309104290132764 
-3.3279084711185956 
-1.741032191069234 
-0.7392281322943046 
-0.03015574048764927 
0.5917133889318941 
1.2602641130377834 
2.067591609953788 
3.066054392383185 
4.2418513647890315 
5.458175263486028 
6.049467864043837 
-2.6629932607218363 
-1.7286480816138892 
-0.3828192918619061 
0.25134313270227726 
0.6282151088142557 
0.9339101562248842 
1.280923688977893 
1.757705912851018 
2.4466904339257702 
3.4258379161082697 
4.74075238222507 
5.4842333108952115 
0.1688004248786975 
0.5356184616337525 
1.059824320785345 
1.2740099006455967 
1.3549519565290546 
1.404117629734798 
1.4797860283913495 
1.634021989621763 
1.9291889439597527 
2.447065490392117 
3.309168598247515 
3.8449731766486774 
2.0516278024568164 
1.889545819460055 
1.7567093870626116 
1.7668806856261408 
1.7188165288784545 
1.6642521360727454 
1.6280687281581232 
1.6381066253512677 
1.7357352877081977 
1.9748223239012725 
2.372490987224383 
2.608054459697394 
</DataArray>
<DataArray type="Float64" Name="Nodal_sigma_yy" NumberOfComponents="1" format="ascii" >
-2.0210045621506003 
-1.7409546697704887 
-1.1670698471878405 
-0.6316125758264245 
-0.20603670891788395 
0.11859074570868335 
0.3627155458164633 
0.5388197291220116 
0.6604729990670503 
0.7444401356729353 
0.8320437367991713 
0.8846801591898863 
-1.580597281829169 
-1.5763219255907353 
-1.3535445351307138 
-0.9004098612381088 
-0.46389250996215126 
-0.0911593942160629 
0.22273131440196853 
0.48638245853995216 
0.7126007374899039 
0.9200588265063938 
1.159948016065727 
1.2979885558974216 
-1.002576418723871 
-1.2382075860920334 
-1.450713163978559 
-1.2449372791729778 
-0.847442821392984 
-0.4171307230994417 
0.006997958819185461 
0.4181821134779469 
0.8224992789799264 
1.235767545579697 
1.6986561929521806 
1.9500703306492453 
-0.7875475188475156 
-0.943689787499386 
-1.2151628404690449 
-1.2450107166472966 
-0.9711880206152371 
-0.5530636693246169 
-0.0754408541454835 
0.4304479391399668 
0.9565037453917236 
1.506774906764435 
2.0915456758441424 
2.3940505482984813 
-0.6687820093906507 
-0.7455981074924332 
-0.9350679933171171 
-1.0314950500193696 
-0.870891222061702 
-0.505826222904757 
-0.021319458614489237 
0.5333323618029686 
1.1353800222608728 
1.7761984671055975 
2.4512999479054622 
2.796797685971389 
-0.6028281629674026 
-0.6183341893986964 
-0.6932618679674347 
-0.74512393440443 
-0.6240672079766117 
-0.30821018298902864 
0.15775607094495828 
0.7269317869469871 
1.3689662075578246 
2.066663770725909 
2.8086390375260066 
3.189381815440602 
-0.560294037997653 
-0.5314292960668082 
-0.49876132413755603 
-0.4583567249004099 
-0.3116344915955435 
-0.01181977576092863 
0.4344486257022226 
0.9991242046774955 
1.6551174547766536 
2.3828228495992567 
3.168514390716351 
3.5743927578293917 
-0.525865150473443 
-0.4632158805724922 
-0.33915491601323605 
-0.19673185177751054 
0.012686510945292717 
0.3309194131682645 
0.7716761182228269 
1.3271577421040914 
1.9811729999677314 
2.717786264864687 
3.5244243100339903 
3.943913520265687 
-0.49158011821421005 
-0.40061999958172057 
-0.19984972611337057 
0.03716826863984174 
0.3221863614947416 
0.6811295912738748 
1.1327919920376348 
1.68298147063768 
2.327565132716388 
3.05786544795708 
3.8650251955896824 
4.286808235382431 
-0.45331218259123335 
-0.3364275014941509 
-0.06973094401058523 
0.24915958401286714 
0.6081107342751412 
1.016466838157571 
1.4897609079100498 
2.040146282108243 
2.672797081925485 
3.3867480910334016 
4.177963383243001 
4.592303556459086 
-0.40905940798121815 
-0.26719635207024095 
0.05799357277894926 
0.44633272995470863 
0.8711921398574294 
1.328063303902713 
1.8261413271828009 
2.3791996724396616 
2.9984434694691564 
3.6893694235824217 
4.452541894150242 
4.852027843277409 
-0.3583093841773843 
-0.1921521901771455 
0.18617983140177652 
0.634042425772575 
1.1159324685143208 
1.6159854623104422 
2.136300918670776 
2.690092671466685 
3.2926906921153947 
3.9549642814128285 
4.68148882185417 
5.0610107793647225 
-0.3018512760536498 
-0.11259448853978714 
0.3145093760644563 
0.8150811732480291 
1.3473575640328193 
1.8852382128502994 
2.4230079112788463 
2.9721331195742744 
3.55182618126141 
4.17869994593821 
4.861593884039402 
5.2176226311581635 
-0.24166184088992296 
-0.030957465095251838 
0.4415479231629532 
0.9912802910391164 
1.5704652174003086 
2.1431026312898016 
2.6946418740489726 
3.232736021100144 
3.780143473952408 
4.3617747025079945 
4.99308204138074 
5.322226857317232 
-0.17897534844800883 
0.052196006892562666 
0.5706144078238182 
1.170932593812117 
1.7957292845499249 
2.4005819814517784 
2.96306985840715 
3.4849503913934035 
3.9895199091283833 
4.5106901955161085 
5.07743699731739 
5.375063227873385 
-0.11529866819026258 
0.14519978474839396 
0.7264643679816855 
1.388969909825121 
2.0597112734621827 
2.687851720057478 
3.2504083347784376 
3.745760348259702 
4.1942675708772645 
4.637111617757141 
5.1155121483940205 
5.3676419615012465 
-0.01566087094722042 
0.29337995984415993 
0.9921621192405801 
1.7598022603817471 
2.474279937283139 
3.0988655163842957 
3.6265818415893674 
4.061495204491176 
4.418521681379213 
4.7375370605404985 
5.097568705748231 
5.300407696250089 
0.10804969795760345 
0.6505447981114791 
1.6907282643742367 
2.592345681759652 
3.310249081595222 
3.86378516952152 
4.282271270920704 
4.587561155799157 
4.7904837206010775 
4.898319068310235 
4.947184232136189 
4.9647710902083775 
1.5587152569662701 
2.3466045315568143 
3.6522738334475107 
4.507328096254634 
5.056524665853171 
5.392002042924922 
5.5749255398578 
5.644190806329039 
5.620007014499932 
5.499887380252666 
5.243649696790333 
5.073451043227612 
2.9536079602864356 
3.7828233810665086 
5.091121789770309 
5.8350565038862445 
6.232551031847173 
6.409442623803459 
6.435794826831078 
6.355565607839447 
6.198980828253298 
5.981713708049958 
5.665042214261742 
5.471385692922403 
</DataArray>
<DataArray type="Float64" Name="Nodal_sigma_xy" NumberOfComponents="1" format="ascii" >
-0.4294787128649876 
0.0030192967073017773 
0.7368801083602813 
1.304560598827734 
1.7802999471660574 
2.1497174045879905 
2.4191078218515094 
2.5814112812524233 
2.616707702733028 
2.484302880847235 
2.0922376011638826 
1.814964725239161 
-0.7996828043311912 
-0.04552737575820451 
0.9506997629552353 
1.425121347113282 
1.8499154954586015 
2.193849273151945 
2.453469615971341 
2.620127004740336 
2.6751113699452054 
2.583787789126844 
2.28981654929688 
2.0836267061749303 
-1.387682019752111 
-0.2671076383362509 
1.1543108872408574 
1.6461913617118888 
2.0040274908082862 
2.309229258537779 
2.554942128373293 
2.7328144200754423 
2.8276400523965877 
2.815332750510618 
2.6770395780124763 
2.5753179489119367 
-1.7239991592071977 
-0.6032973759917553 
1.0205700636812387 
1.7562429817372758 
2.1555750801630085 
2.459269028779017 
2.707647970885818 
2.903354792379138 
3.0380636161110894 
3.0953775652503204 
3.0572250016083546 
3.012270321383829 
-1.898701381145626 
-0.886620801391774 
0.7491352089219457 
1.706980648547564 
2.2462771659264367 
2.6047129187719342 
2.8821675053362075 
3.106767652483856 
3.282096031055045 
3.3992271317064064 
3.440332390919404 
3.4391801229364782 
-1.9737320923537642 
-1.0822156344242706 
0.474145609033519 
1.562623339789627 
2.255283019898894 
2.713467841966183 
3.0502739563673704 
3.319262758114229 
3.5395952367796086 
3.7120809582016543 
3.82398508561222 
3.8623951957346163 
-1.9875227828585922 
-1.1946426999211233 
0.2582158578379192 
1.3970617376585013 
2.207100831058839 
2.774465264689498 
3.19156613075024 
3.520319289866337 
3.79278727107435 
4.020364571695852 
4.198895984458502 
4.274473039522977 
-1.959655232047937 
-1.236703408270334 
0.12231719566439331 
1.261331399149987 
2.1409163004420235 
2.7990451245660624 
3.2989671250233457 
3.695968577458854 
4.026796360011602 
4.310811878033198 
4.552853560282709 
4.663138708924674 
-1.8985349105167737 
-1.219677154659069 
0.06784034517145093 
1.182612961844154 
2.0909763881767756 
2.8092956193642844 
3.3783068760037054 
3.841018464598638 
4.231424905952933 
4.571856824103699 
4.873625191912965 
5.015599073415471 
-1.8067893687357062 
-1.1515533485654277 
0.08875471761313121 
1.17165332714456 
2.0803525009115247 
2.8275826068880248 
3.442692855855845 
3.958299528301809 
4.402283578612439 
4.795332782038917 
5.151166400124851 
5.321080945884109 
-1.684590530438657 
-1.037787404134302 
0.1771691012661652 
1.2301220941491156 
2.122015174693818 
2.8715554005816095 
3.506783384600225 
4.05553353342165 
4.5402075453171085 
4.9772951662033496 
5.379009489050256 
5.5723412789736475 
-1.5318129267778633 
-0.8826889241331175 
0.32533102582294826 
1.3557541348891684 
2.222544849153833 
2.9538215354158375 
3.5837184034887586 
4.142100228760475 
4.649339061399514 
5.117500797113742 
5.554518096727183 
5.766114402314402 
-1.3496485807943777 
-0.6908241418180782 
0.5259240815124016 
1.5452562374959844 
2.3859407500243965 
3.0843763909046027 
3.6852087797556248 
4.22742637094447 
4.735085489093713 
5.217818251096924 
5.677865355628729 
5.902294113987543 
-1.1417210620366964 
-0.4678743089431646 
0.7719782714045149 
1.7953767104894365 
2.615868680127507 
3.273651391767051 
3.8243069702963597 
4.321972375382906 
4.803144541161624 
5.280248503753392 
5.74983335086238 
5.981793220768833 
-0.9137321777651238 
-0.21951408915950002 
1.0584376356292458 
2.103228019889892 
2.9147168252598363 
3.532313608377315 
4.018230232706527 
4.441798825334309 
4.861267166274796 
5.305201112297685 
5.768657917186523 
6.002832422869332 
-0.6693161736926801 
0.05568099676486993 
1.3902260069090326 
2.4691861254851646 
3.279638727816281 
3.8621957035229513 
4.281037883348546 
4.610717303196427 
4.928238979995698 
5.293695664263387 
5.724761007769929 
5.9555374515206925 
-0.39119857975335687 
0.3889007457917495 
1.8071188310325388 
2.9099776976399427 
3.6982319787221023 
4.237942268776003 
4.594522086975681 
4.833208660448308 
5.02835033410036 
5.264617720627566 
5.604622565585528 
5.8051988265119245 
0.016617999560142704 
0.93200711008628 
2.450885854520787 
3.4588591084785745 
4.135096403505 
4.5847471112389755 
4.870351262630085 
5.034667246456794 
5.121859252042353 
5.201306487314645 
5.395470102514036 
5.540769622834123 
1.5300578943924192 
2.2580046547325923 
3.390337891336237 
4.044940324955703 
4.461373184888378 
4.740454215676651 
4.924779879921503 
5.0290767446607365 
5.0551862996070405 
5.002678100632406 
4.885525088899669 
4.8141545023819 
2.7875967891164013 
3.2288267773860397 
3.924042773048205 
4.325005818059076 
4.571237411330451 
4.743148061355251 
4.867189742962584 
4.944399575337979 
4.955933900358631 
4.852801288404047 
4.504126414874902 
4.244294233181165 
</DataArray>
</PointData>
<CellData>
</CellData>
<Points>
<DataArray type="Float64" Name="Points" NumberOfComponents="3" format="ascii">
0.0 50.0 0.0
0.0 45.4545441 0.0
0.0 40.9090919 0.0
0.0 36.363636 0.0
0.0 31.818182 0.0
0.0 27.272728 0.0
0.0 22.727272 0.0
0.0 18.181818 0.0
0.0 13.636364 0.0
0.0 9.090909 0.0
0.0 4.5454545 0.0
0.0 0.0 0.0
2.52631569 50.5263176 0.0
2.52631569 46.1435394 0.0
2.52631569 41.7607651 0.0
2.52631569 37.3779907 0.0
2.52631569 32.9952164 0.0
2.52631569 28.6124401 0.0
2.52631569 24.2296658 0.0
2.52631569 19.8468895 0.0
2.52631569 15.4641151 0.0
2.52631569 11.0813398 0.0
2.52631569 6.69856453 0.0
2.52631569 2.31578946 0.0
5.05263138 51.0526314 0.0
5.05263138 46.8325348 0.0
5.05263138 42.612442 0.0
5.05263138 38.3923454 0.0
5.05263138 34.1722488 0.0
5.05263138 29.9521523 0.0
5.05263138 25.7320576 0.0
5.05263138 21.511961 0.0
5.05263138 17.2918663 0.0
5.05263138 13.0717707 0.0
5.05263138 8.85167503 0.0
5.05263138 4.63157892 0.0
7.57894754 51.578949 0.0
7.57894754 47.5215302 0.0
7.57894754 43.4641151 0.0
7.57894754 39.4067001 0.0
7.57894754 35.3492813 0.0
7.57894754 31.2918663 0.0
7.57894754 27.2344494 0.0
7.57894754 23.1770344 0.0
7.57894754 19.1196175 0.0
7.57894754 15.0622005 0.0
7.57894754 11.0047846 0.0
7.57894754 6.94736862 0.0
10.1052628 52.1052628 0.0
10.1052628 48.2105255 0.0
10.1052628 44.3157883 0.0
10.1052628 40.421051 0.0
10.1052628 36.5263176 0.0
10.1052628 32.6315804 0.0
10.1052628 28.7368412 0.0
10.1052628 24.8421059 0.0
10.1052628 20.9473686 0.0
10.1052628 17.0526314 0.0
10.1052628 13.1578951 0.0
10.1052628 9.26315784 0.0
12.6315794 52.6315804 0.0
12.6315794 48.8995209 0.0
12.6315794 45.1674652 0.0
12.6315794 41.4354057 0.0
12.6315794 37.7033501 0.0
12.6315794 33.9712906 0.0
12.6315794 30.2392349 0.0
12.6315794 26.5071774 0.0
12.6315794 22.7751198 0.0
12.6315794 19.0430622 0.0
12.6315794 15.3110046 0.0
12.6315794 11.5789471 0.0
15.1578951 53.1578941 0.0
15.1578951 49.5885162 0.0
15.1578951 46.0191383 0.0
15.1578951 42.4497604 0.0
15.1578951 38.8803825 0.0
15.1578951 35.3110046 0.0
15.1578951 31.7416267 0.0
15.1578951 28.1722488 0.0
15.1578951 24.6028709 0.0
15.1578951 21.033493 0.0
15.1578951 17.4641151 0.0
15.1578951 13.8947372 0.0
17.6842098 53.6842117 0.0
17.6842098 50.2775116 0.0
17.6842098 46.8708153 0.0
17.6842098 43.4641151 0.0
17.6842098 40.057415 0.0
17.6842098 36.6507187 0.0
17.6842098 33.2440186 0.0
17.6842098 29.8373203 0.0
17.6842098 26.4306221 0.0
17.6842098 23.0239239 0.0
17.6842098 19.6172256 0.0
17.6842098 16.2105255 0.0
20.2105255 54.2105255 0.0
20.2105255 50.966507 0.0
20.2105255 47.7224884 0.0
20.2105255 44.4784698 0.0
20.2105255 41.2344513 0.0
20.2105255 37.9904289 0.0
20.2105255 34.7464104 0.0
20.2105255 31.5023918 0.0
20.2105255 28.2583733 0.0
20.2105255 25.0143547 0.0
20.2105255 21.7703342 0.0
20.2105255 18.5263157 0.0
22.7368412 54.7368431 0.0
22.7368412 51.6555023 0.0
22.7368412 48.5741615 0.0
22.7368412 45.4928246 0.0
22.7368412 42.4114838 0.0
22.7368412 39.330143 0.0
22.7368412 36.2488022 0.0
22.7368412 33.1674652 0.0
22.7368412 30.0861244 0.0
22.7368412 27.0047855 0.0
22.7368412 23.9234447 0.0
22.7368412 20.8421059 0.0
25.2631588 55.2631569 0.0
25.2631588 52.3444977 0.0
25.2631588 49.4258385 0.0
25.2631588 46.5071754 0.0
25.2631588 43.5885162 0.0
25.2631588 40.669857 0.0
25.2631588 37.7511978 0.0
25.2631588 34.8325348 0.0
25.2631588 31.9138756 0.0
25.2631588 28.9952145 0.0
25.2631588 26.0765553 0.0
25.2631588 23.1578941 0.0
27.7894745 55.7894745 0.0
27.7894745 53.033493 0.0
27.7894745 50.2775116 0.0
27.7894745 47.5215302 0.0
27.7894745 44.7655487 0.0
27.7894745 42.0095711 0.0
27.7894745 39.2535896 0.0
27.7894745 36.4976082 0.0
27.7894745 33.7416267 0.0
27.7894745 30.9856453 0.0
27.7894745 28.2296658 0.0
27.7894745 25.4736843 0.0
30.3157902 56.3157883 0.0
30.3157902 53.7224884 0.0
30.3157902 51.1291847 0.0
30.3157902 48.5358849 0.0
30.3157902 45.942585 0.0
30.3157902 43.3492813 0.0
30.3157902 40.7559814 0.0
30.3157902 38.1626778 0.0
30.3157902 35.5693779 0.0
30.3157902 32.976078 0.0
30.3157902 30.3827744 0.0
30.3157902 27.7894745 0.0
32.8421059 56.8421059 0.0
32.8421059 54.4114838 0.0
32.8421059 51.9808617 0.0
32.8421059 49.5502396 0.0
32.8421059 47.1196175 0.0
32.8421059 44.6889954 0.0
32.8421059 42.2583733 0.0
32.8421059 39.8277512 0.0
32.8421059 37.3971291 0.0
32.8421059 34.966507 0.0
32.8421059 32.5358849 0.0
32.8421059 30.1052628 0.0
35.3684196 57.3684196 0.0
35.3684196 55.1004791 0.0
35.3684196 52.8325348 0.0
35.3684196 50.5645943 0.0
35.3684196 48.2966499 0.0
35.3684196 46.0287094 0.0
35.3684196 43.7607651 0.0
35.3684196 41.4928246 0.0
35.3684196 39.2248802 0.0
35.3684196 36.9569397 0.0
35.3684196 34.6889954 0.0
35.3684196 32.421051 0.0
37.8947372 57.8947372 0.0
37.8947372 55.7894745 0.0
37.8947372 53.6842117 0.0
37.8947372 51.578949 0.0
37.8947372 49.4736824 0.0
37.8947372 47.3684196 0.0
37.8947372 45.2631569 0.0
37.8947372 43.1578941 0.0
37.8947372 41.0526314 0.0
37.8947372 38.9473686 0.0
37.8947372 36.8421059 0.0
37.8947372 34.7368431 0.0
40.421051 58.421051 0.0
40.421051 56.4784698 0.0
40.421051 54.5358849 0.0
40.421051 52.5932999 0.0
40.421051 50.6507187 0.0
40.421051 48.7081337 0.0
40.421051 46.7655487 0.0
40.421051 44.8229675 0.0
40.421051 42.8803825 0.0
40.421051 40.9377975 0.0
40.421051 38.9952164 0.0
40.421051 37.0526314 0.0
42.9473686 58.9473686 0.0
42.9473686 57.1674652 0.0
42.9473686 55.387558 0.0