<?xml version="1.0"?>
<VTKFile type="UnstructuredGrid" version="0.1" byte_order="LittleEndian" compressor="vtkZLibDataCompressor">
<UnstructuredGrid>
<Piece NumberOfPoints="240" NumberOfCells="209">
<PointData>
<DataArray type="Float64" Name="displacement" NumberOfComponents="3" format="ascii" >
0.0 0.0  0.
0.0 0.0  0.
0.0 0.0  0.
0.0 0.0  0.
0.0 0.0  0.
0.0 0.0  0.
0.0 0.0  0.
0.0 0.0  0.
0.0 0.0  0.
0.0 0.0  0.
0.0 0.0  0.
0.0 0.0  0.
-0.6595673982670914 0.08114329832149837  0.
-0.289390327470812 0.0444703507778311  0.
-0.15656741080724743 0.0885032078406487  0.
-0.05122908382140042 0.13275843607329055  0.
0.02911222070843199 0.17037425048061383  0.
0.09012278800117295 0.20028770843663682  0.
0.13286583934420979 0.22109130803329408  0.
0.1575891285136192 0.23154504296068673  0.
0.16425548380157795 0.23005644709559997  0.
0.15302312079700273 0.21436409938799558  0.
0.12439434753413765 0.1807975741343177  0.
0.07247909894430844 0.11616523051713117  0.
-1.2624387075817658 0.25892313752744717  0.
-0.6641097104587003 0.24259977316871653  0.
-0.35075493058838453 0.26913760337384585  0.
-0.13863456211438188 0.32856608638952056  0.
0.026211402878634996 0.3858788936150424  0.
0.15264574509874182 0.4328466416438506  0.
0.2445470946086732 0.4654693470536978  0.
0.3026244154906795 0.48075535699409216  0.
0.32667484110578643 0.4758729137923189  0.
0.31646575629763285 0.44749158424707014  0.
0.27208120947003045 0.390933181838111  0.
0.19153833615680527 0.2984953104731756  0.
-1.8263487004616736 0.5174716317737613  0.
-1.0849405394893505 0.5251825621465576  0.
-0.6054838642625279 0.5473544985471906  0.
-0.2714998465882011 0.599294688077254  0.
-0.01712973018615293 0.6598011385574917  0.
0.1804563190650557 0.7118900091695657  0.
0.3282088948981832 0.7477171132174673  0.
0.4282545420014013 0.7622668796892358  0.
0.48049426951229707 0.7514849891878154  0.
0.48423173355868276 0.7114155790726592  0.
0.43910885313389303 0.6376454056783072  0.
0.3452018316113821 0.525113538754854  0.
-2.368087465977309 0.8405048068266529  0.
-1.5315112340410568 0.8730483145701327  0.
-0.9161078952802877 0.902638405069561  0.
-0.46012916888237476 0.9477688599570502  0.
-0.10932109501608632 1.0012534085303124  0.
0.16537819055050756 1.0491261314590434  0.
0.37595531441430535 1.0808764767869339  0.
0.5264740441942986 1.0896430685529674  0.
0.617499204028443 1.0702391119970367  0.
0.6481143554092909 1.018167597339597  0.
0.6173491211952135 0.9291372654685999  0.
0.5253292829663698 0.7990679507317037  0.
-2.9008693573614495 1.2219451827431065  0.
-1.9955154681828393 1.2788023548655385  0.
-1.2733225777130592 1.3230755896437318  0.
-0.706238798716449 1.3680036248632683  0.
-0.2576340955492866 1.4138879842079966  0.
0.09929319825812392 1.4528354723232182  0.
0.37915839900399845 1.4756971360643678  0.
0.5882224353531399 1.4749468567895487  0.
0.7280735034522022 1.4446710662561353  0.
0.7979369776345049 1.379916386870634  0.
0.7962676607868885 1.276282209534673  0.
0.7222262479578766 1.1298569664333655  0.
-3.4345580266478075 1.6602949109415739  0.
-2.4754864085386488 1.74097169382622  0.
-1.6698946209634273 1.8034965687005133  0.
-1.0071806078536427 1.8546808149170102  0.
-0.46562103101913843 1.8970634280521155  0.
-0.024790595454771993 1.9275384092251127  0.
0.3292209604799277 1.9400629247305723  0.
0.6037728909739062 1.928165025586261  0.
0.801458758448703 1.8859995147458133  0.
0.9218997008468958 1.8084550616726256  0.
0.9632118213582722 1.6909941971605282  0.
0.9234000527270396 1.5295784252729354  0.
-3.976502420477333 2.156499313040339  0.
-2.973291914216544 2.260816943843999  0.
-2.1020301557056147 2.343090763444484  0.
-1.3595666868694543 2.4051765740863877  0.
-0.7340541259177018 2.449274026899195  0.
-0.21177975580681208 2.4748940567258453  0.
0.21837341458301165 2.478910260700758  0.
0.5633580877914341 2.4567607596553267  0.
0.8262108640116003 2.4034998094452815  0.
1.0069635935278658 2.314333649886997  0.
1.1036643993797053 2.1847822136518418  0.
1.1134484281292938 2.0107003284147793  0.
-4.532269501517178 2.7128607324907152  0.
-3.4921886478068056 2.840907989505839  0.
-2.568826341681325 2.943451052723607  0.
-1.7611057983863845 3.0193572077459545  0.
-1.062595657363233 3.069792349610534  0.
-0.46476333364948214 3.0953197907498287  0.
0.040200029117334814 3.0948143880491665  0.
0.45780010471614224 3.065594658842929  0.
0.7907859308959211 3.004017909882092  0.
1.0393609977682559 2.9060350405363002  0.
1.201672441302981 2.767525602547624  0.
1.2744392223205623 2.584439737511064  0.
-5.106155401513567 3.332475094198226  0.
-4.035832358618355 3.484441731556855  0.
-3.0713404018769315 3.607355734868702  0.
-2.2111237364252387 3.6987701556675794  0.
-1.451061286553088 3.759049750319018  0.
-0.7858414357258307 3.789079208031043  0.
-0.21042825204172053 3.7889029443691546  0.
0.2789072801794591 3.7572751223156207  0.
0.6841039325931354 3.69181825386963  0.
1.0052083881234346 3.589411735033927  0.
1.2404864023731685 3.4465413740810655  0.
1.3866473409100304 3.2595050111247215  0.
-5.70148175666017 4.018911910734503  0.
-4.607783812679751 4.194889418799685  0.
-3.6117515803347526 4.338076771494381  0.
-2.7103976063740065 4.445889289148875  0.
-1.9000520258691664 4.518415952514466  0.
-1.1769245213154007 4.55673173482211  0.
-0.537799106117479 4.561590856329762  0.
0.019503962104595735 4.53273596314476  0.
0.4959231656306307 4.468792689710079  0.
0.8910965047150081 4.367506011932602  0.
1.2033273975785763 4.226050572146165  0.
1.4295657880202663 4.041251813444836  0.
-6.320793912551994 4.775999478346771  0.
-5.211238607185862 4.975793578045174  0.
-4.192703432175623 5.1390036243551345  0.
-3.2607085750928517 5.2635756120217385  0.
-2.4110551277052803 5.349812378140719  0.
-1.640237810618667 5.399156190003394  0.
-0.945871529297426 5.4129773181045095  0.
-0.32682298668101084 5.3917635651193585  0.
0.21693556341057985 5.334877381172622  0.
0.6845049033467416 5.240729354778071  0.
1.0741094790961818 5.107094001108351  0.
1.383011979049357 4.931356408629215  0.
-6.966016986472203 5.607682945563542  0.
-5.848870021710251 5.830673591174936  0.
-4.816807845083277 6.013476431395174  0.
-3.864286429693799 6.154772093080663  0.
-2.9861881232701872 6.25538859991144  0.
-2.178451074998555 6.317406115205347  0.
-1.4386440137697516 6.342974401060033  0.
-0.7660687380174676 6.333345804749508  0.
-0.16137819726580208 6.288486682535782  0.
0.37395428243151985 6.207260245336636  0.
0.8379398029333909 6.087829912041093  0.
1.2280743405302899 5.928011731234591  0.
-7.638726908701608 6.517958275815685  0.
-6.522778588924695 6.763060082273984  0.
-5.486267662786911 6.964800591190711  0.
-4.5232490381613415 7.122401206724738  0.
-3.627677633771232 7.237339717667776  0.
-2.794428689710576 7.3125651605144  0.
-2.0202209047609014 7.351292074178884  0.
-1.3040817333897257 7.355814364930427  0.
-0.6470197868827224 7.326807018416044  0.
-0.05109900952499103 7.263435700141556  0.
0.48128567928432797 7.163999519502405  0.
0.9476650709140406 7.026458666487008  0.
-8.340662235084869 7.510989406631815  0.
-7.234672490385666 7.776812739720795  0.
-6.2027127997042495 7.996532142420032  0.
-5.2391358762131865 8.169508727149593  0.
-4.337191204465012 8.297892452741326  0.
-3.4905297978959107 8.385691921541317  0.
-2.6943905588307615 8.4374313535541  0.
-1.9465502352600745 8.456866449161573  0.
-1.2477001926844702 8.445842215333862  0.
-0.6005501239465894 8.403951275226346  0.
-0.00818468437631292 8.329262610921534  0.
0.5265852842307012 8.219535444584295  0.
-9.074863923080532 8.591790296522946  0.
-7.986523981522323 8.876976498276717  0.
-6.967537732429975 9.113344348195765  0.
-6.012841972293512 9.299797208744993  0.
-5.115292425780673 9.439513962401113  0.
-4.267564237190285 9.537806556806691  0.
-3.463307556203808 9.600677768714696  0.
-2.6981510804584836 9.63359602590629  0.
-1.9708200244576974 9.640310150746654  0.
-1.2839032405363457 9.621496672882014  0.
-0.6420138601890145 9.57514314038173  0.
-0.04884322325307496 9.497787230000387  0.
-9.847580881269867 9.76767655824135  0.
-8.78229406306792 10.072320980726836  0.
-7.783217529768096 10.322818698163314  0.
-6.845551392922629 10.51899084266758  0.
-5.961777593382153 10.665526046657517  0.
-5.124161741841835 10.769913550431335  0.
-4.325487478448261 10.83979265000064  0.
-3.5594535540026135 10.882248111524452  0.
-2.821498564899246 10.903246528873073  0.
-2.110483912351894 10.906311310824345  0.
-1.4313292998419909 10.889398728320952  0.
-0.7914185288732144 10.84874204133081  0.
-10.673415570161477 11.055176426973624  0.
-9.631064824302356 11.379377440483257  0.
-8.656771033540505 11.6404961287746  0.
-7.741840521668093 11.837173550593732  0.
-6.8779781266253766 11.98137120404593  0.
-6.058161779983137 12.083490090351892  0.
-5.275497745027977 12.15276934971381  0.
-4.52316957522231 12.197413357350435  0.
-3.794618970043313 12.224946295870922  0.
-3.0839744204833983 12.242504363016007  0.
-2.387709714140695 12.25544363764883  0.
-1.713644469474647 12.25229814496353  0.
-11.579572021993187 12.487636069923392  0.
-10.557250827811057 12.8468867820045  0.
-9.608659786937498 13.092483443768218  0.
-8.71530664642579 13.269921593479863  0.
-7.871311179411516 13.395292984112121  0.
-7.070869709222854 13.481264537480815  0.
-6.308146532030426 13.537789878361307  0.
-5.57698993916935 13.573073035108061  0.
-4.870904653630438 13.594368896871803  0.
-4.183096670810663 13.60908943000625  0.
-3.506018761681805 13.627985139070054  0.
-2.8277340146835974 13.678370676874215  0.
-12.582616259389402 14.268647339574098  0.
-11.612399894726623 14.512844274061557  0.
-10.674036301634956 14.70249668869219  0.
-9.790559282850493 14.830375929269065  0.
-8.957896107584972 14.914003228422477  0.
-8.170992169276735 14.965430457363217  0.
-7.424596558236392 14.9936073527418  0.
-6.713367541934917 15.005560543008917  0.
-6.031642931346503 15.00697791155517  0.
-5.3731860965243765 15.00215251102552  0.
-4.73123343281539 14.992544916861162  0.
-4.099528946844506 14.970450806134423  0.
</DataArray>
<DataArray type="Float64" Name="Nodal_sigma_xx" NumberOfComponents="1" format="ascii" >
-28.896714449620333 
-20.013872552401885 
-7.817974224229367 
-2.2947146137426127 
1.4145149222003306 
3.9129238915086013 
5.505267879766612 
6.33155114974682 
6.45903700760204 
5.911567419555322 
4.584688220379618 
3.699442572485643 
-27.038124107789777 
-19.524339509488435 
-8.404749219285577 
-2.570994671647127 
1.1831614200559617 
3.7338676602654344 
5.381127552850264 
6.272248040037849 
6.474828848685105 
6.010662290854049 
4.817063038869642 
4.021851554517471 
-23.688156211505706 
-18.40867533834315 
-9.347778334996423 
-3.2384575617846947 
0.673611736512316 
3.33944688497255 
5.107338898557957 
6.1357085135536735 
6.497018917854346 
6.214184425955509 
5.2775260052847655 
4.642864386212441 
-21.05115394127168 
-17.143162676974587 
-9.806613079555431 
-3.9746165206181727 
0.08023775805240113 
2.8783225761623656 
4.7813910334339695 
5.960061034162652 
6.49452666651619 
6.414156250986491 
5.722660550093217 
5.223730588371513 
-19.030098323096 
-15.91413732330922 
-9.833255295320498 
-4.54508302399833 
-0.5282702310977152 
2.3728172631599906 
4.4083474145394 
5.741839889867082 
6.4569376442510436 
6.587795852854131 
6.140264319987798 
5.771484064476754 
-17.471837859964886 
-14.803339090257445 
-9.578218610115771 
-4.871585818021919 
-1.0492704263197317 
1.8697593755163693 
4.0081480504314015 
5.486032644492989 
6.379144418340566 
6.722027654436355 
6.519930202995679 
6.281839878366702 
-16.232861274246275 
-13.822303904347887 
-9.168386172549699 
-4.973439353731794 
-1.4235393946005024 
1.425461775221835 
3.6134513682448244 
5.2081783180692796 
6.264519351497734 
6.811533406562597 
6.852754763265675 
6.745878073921729 
-15.193613962534805 
-12.944736647873409 
-8.683123763902596 
-4.903960194925567 
-1.6406477915668072 
1.0783726639852889 
3.2594543744765456 
4.93126778708337 
6.124486408586117 
6.858004694505353 
7.1325705554499415 
7.153968998001527 
-14.256849376229393 
-12.128150181633783 
-8.160643068195327 
-4.715086898395911 
-1.7196863041961128 
0.8410020894811107 
2.970984960376262 
4.678472623425437 
5.97502241009831 
6.868688170920601 
7.356981463456299 
7.498617939254563 
-13.343061714538749 
-11.324954608261306 
-7.610091596822269 
-4.443595317865533 
-1.689861755360626 
0.7053743968653778 
2.7567458375613834 
4.465453840061982 
5.831217122989834 
6.853536014296386 
7.527370398660688 
7.776069649325461 
-12.386776109512352 
-10.487637311718172 
-7.021429562017659 
-4.108255878094299 
-1.5778662305806737 
0.6525956821786982 
2.61057116462791 
4.296219812183098 
5.702087681527606 
6.821441057745757 
7.647656810077211 
7.986536893166273 
-11.334879391008517 
-9.571333237027465 
-6.371679577425923 
-3.7107217829880383 
-1.401115141424245 
0.6613508191589264 
2.515992283554168 
4.162756337243541 
5.587367971930132 
6.776662830141438 
7.722138966332716 
8.133099681868373 
-10.147052096104693 
-8.535682299731388 
-5.628331907641948 
-3.236502721716753 
-1.163760408546825 
0.714360294291583 
2.4511220056190814 
4.046456402924352 
5.476043502504137 
6.716039249176767 
7.7528958497558715 
8.21954413738682 
-8.797382030494692 
-7.346659456852393 
-4.751459720325769 
-2.655274970795586 
-0.8527531023153748 
0.8048820747526746 
2.39339053353683 
3.9191964892143316 
5.3447545653471575 
6.626147749501906 
7.736724544579197 
8.24734783950752 
-7.274212878772905 
-5.977367104966792 
-3.696311035045154 
-1.922784369426806 
-0.4343518921147673 
0.9465845827904005 
2.3287877384181686 
3.744393076398976 
5.152909660380863 
6.477663865966128 
7.660171734376068 
8.211219431733639 
-5.570703952511764 
-4.402976099872575 
-2.4172351646529213 
-0.9895715764420018 
0.1417568145887107 
1.1830780402237027 
2.2746141983577504 
3.4921312953455876 
4.834504601669774 
6.20882352550624 
7.4881878415353995 
8.089982260963758 
-3.644953478384074 
-2.576826836385781 
-0.8722008151979508 
0.17630995989935866 
0.9173580652095162 
1.577614300200565 
2.3023751035369457 
3.1963894153742545 
4.3280365215212315 
5.692850108411454 
7.124020736936261 
7.821551850628231 
-1.2685462479013838 
-0.3506352733504926 
0.9468338088999737 
1.5311527572171055 
1.8792749565056415 
2.1691777529062763 
2.512769571507542 
3.0014785307090706 
3.72778096873107 
4.7972606037219165 
6.306363008230858 
7.180629637441035 
2.4562792085064973 
2.5973282023643662 
2.8259902518194635 
2.930827084982495 
2.9422698358328736 
2.9373384546240677 
2.969211421396112 
3.0869784468824135 
3.3480679240188476 
3.829558273736861 
4.665497335274792 
5.194291820010269 
4.832530887722378 
4.303496451370712 
3.730007743852813 
3.6186760538976004 
3.4844798106046895 
3.3589958256773724 
3.2623811589802267 
3.2195721504012065 
3.2631010893183836 
3.416513014314659 
3.5942080437144277 
3.666379589340359 
</DataArray>
<DataArray type="Float64" Name="Nodal_sigma_yy" NumberOfComponents="1" format="ascii" >
-3.005321566502804 
-2.5739378398811077 
-1.7149298543487728 
-0.9506114201733601 
-0.36346054664301436 
0.07790977531713467 
0.41142292752513854 
0.6583965334278532 
0.8392634559831071 
0.9781890645846351 
1.1350311576312624 
1.2294404872423272 
-2.4069980564048348 
-2.399680142824282 
-2.0565672346793873 
-1.3771398187509463 
-0.74502339378215 
-0.21478486749757159 
0.2296256852687641 
0.6049905779321689 
0.9319062805125993 
1.2389992616829733 
1.6020436775418727 
1.812201952233879 
-1.5796483803305859 
-1.9609558671752536 
-2.288144071269274 
-1.943239325535439 
-1.3256036889680791 
-0.6794412594415402 
-0.05658904414753524 
0.5375436429883007 
1.1151581024310486 
1.702829703780532 
2.364282908158254 
2.7250862428450437 
-1.2111036680866447 
-1.490608877982045 
-1.9478669809125924 
-1.9785355631873593 
-1.5349246310186553 
-0.8900930236620536 
-0.17642537434209576 
0.5608045305103515 
1.3120293801012481 
2.086630840501599 
2.9057364949509146 
3.3295982971100093 
-0.9919345957101531 
-1.1454523781438932 
-1.4936283276521518 
-1.6604490589950869 
-1.4050356816870362 
-0.8415745948953319 
-0.11555196758994297 
0.6940031009444334 
1.5526806726413935 
2.4495831918092548 
3.3830391274240865 
3.858852529123793 
-0.862889498495877 
-0.9127885812675776 
-1.08500620096414 
-1.2097362168210732 
-1.0428200319904903 
-0.5708881695307265 
0.11839364224103999 
0.9435293385788582 
1.8545763341123802 
2.825075875760144 
3.8404032420066683 
4.35781997887579 
-0.7774697429787458 
-0.7515673170538807 
-0.7531361600618736 
-0.7515526861499491 
-0.5724241633328201 
-0.1494090860745884 
0.49250493321654726 
1.2983621024610694 
2.2197651533966987 
3.223579012383956 
4.288462272623452 
4.834050277572048 
-0.7095790853173831 
-0.6275232239538512 
-0.48457582071753913 
-0.33523048995525095 
-0.08162769473390387 
0.34446574518509954 
0.9561415659885162 
1.7309434707192075 
2.635685693531402 
3.6405203951576626 
4.723095375378614 
5.28150735927106 
-0.6451753640849645 
-0.5184439559443828 
-0.2571745254567881 
0.03054817508912598 
0.38345194296625607 
0.8498139535044725 
1.4561744314867586 
2.2040392379232343 
3.079155256640157 
4.0617982149867835 
5.133596160140827 
5.68971991635099 
-0.5770209377580776 
-0.411667397930497 
-0.052530767798080136 
0.3534753687486103 
0.8062437610070554 
1.3301866207889241 
1.9503088359743876 
2.6807065313897325 
3.5227566872560327 
4.4687457474316465 
5.507227551472362 
6.0480974572086055 
-0.5017887758707145 
-0.30104055663151186 
0.14121113924501363 
0.6448061343601706 
1.1864834266762467 
1.770066089046896 
2.412655832803583 
3.132632783016431 
3.941815380869239 
4.843069958925088 
5.832446036988241 
6.348366039859789 
-0.41872818334783857 
-0.18486504178070165 
0.32974747883487365 
0.913785029211114 
1.5307610419553481 
2.1680984465990427 
2.8331574789094938 
3.5441974369050797 
4.319697077379626 
5.171082138978443 
6.101220259956118 
6.585842470897125 
-0.3289865056661338 
-0.06446100035371549 
0.5141755251206765 
1.166210252999146 
1.8471235789928824 
2.5308202090264285 
3.2141231977864635 
3.9127458164813067 
4.650312324422316 
5.446286896740294 
6.3101489156940715 
6.759576228579768 
-0.23498295462587537 
0.05778646167438539 
0.6945790794042297 
1.4069643817771067 
2.1440542637783544 
2.868436469788966 
3.565972982133511 
4.246840914496474 
4.938289640307646 
5.66999296780164 
6.4601605974300265 
6.871087780404515 
-0.13725617876095852 
0.183101536371066 
0.8785095822403024 
1.650356598780208 
2.4380193331735605 
3.1966442663857686 
3.9039753084725284 
4.562526219608367 
5.198456621132406 
5.850839640996947 
6.554324761584558 
6.922378510161036 
-0.03543778383030251 
0.3256401072969569 
1.1021455556488529 
1.9453071294745095 
2.7798318436770644 
3.5573472337581236 
4.257932316368483 
4.881147793033548 
5.448361700836738 
6.004843944431656 
6.59663776179955 
6.905808156841489 
0.12056950094052632 
0.5472349701622863 
1.4714921205426055 
2.434679084703212 
3.310577314420693 
4.073233437587254 
4.722896217409484 
5.267079373371153 
5.721251245184016 
6.127614678872182 
6.578879548121674 
6.8310793029052945 
0.3151802620424504 
1.034409607997949 
2.3651301238770346 
3.4665124912453757 
4.33961976677595 
5.0193220162230325 
5.541850312840541 
5.932722766056433 
6.2024921387276635 
6.352105847884529 
6.411096066052137 
6.42541161977447 
2.0870204130016496 
3.0352550748569547 
4.610549102409619 
5.662826516052397 
6.371080297430792 
6.834472870674736 
7.118835293544434 
7.266940490048032 
7.301074541802666 
7.214270737599941 
6.940584318573819 
6.743736142060184 
3.7684589862258018 
4.691997349833557 
6.202668450500982 
7.146955338950036 
7.711654321364829 
8.02298060363965 
8.155556442724496 
8.158375347868809 
8.067012187492313 
7.901939097514003 
7.6113172030727005 
7.420380720924333 
</DataArray>
<DataArray type="Float64" Name="Nodal_sigma_xy" NumberOfComponents="1" format="ascii" >
-0.7013448614510839 
0.059140352142550145 
1.3035203859424973 
2.160774268437617 
2.797869889408105 
3.244814771451766 
3.5403481492886524 
3.6935318752438815 
3.6894371893904685 
3.4788110038335334 
2.93247675670154 
2.5518153377927453 
-1.0794584694742015 
0.12939100377807417 
1.6922807713624999 
2.3595877489750787 
2.9088219047003365 
3.3150196461971015 
3.59546570568898 
3.75377138729634 
3.7752391305045245 
3.6190306293088943 
3.2073555723980602 
2.9252668687236243 
-1.7403946967114143 
0.00014005760691671032 
2.130235278937448 
2.747492914394549 
3.1642681912618085 
3.5004704775549556 
3.7539359156721415 
3.9224458894617253 
3.993186156870333 
3.939580235776747 
3.73931416338691 
3.6012255659560815 
-2.1915349376891853 
-0.4255091301326122 
2.0312049537874692 
2.9905447119275954 
3.434915656658209 
3.747100722222822 
3.9896307048367676 
4.17144995566553 
4.28674268292631 
4.3187298041454145 
4.248298518663745 
4.185417968398317 
-2.437692648487097 
-0.8267076210517482 
1.6764704734348084 
2.984683830276241 
3.622112116048134 
3.994249710050259 
4.260831281727858 
4.467720878597875 
4.624739838347211 
4.724720308180721 
4.749487492819904 
4.74025554416204 
-2.533642019431035 
-1.1112550154262084 
1.2832049959909786 
2.8118919367193227 
3.6803995223236265 
4.187620185611634 
4.524128462104925 
4.777286215881935 
4.980056717890271 
5.138740721006398 
5.2419878930110935 
5.277345075624593 
-2.5304743080840013 
-1.270806369757035 
0.9623308510562516 
2.5840839123323276 
3.637795609059605 
4.3032377899815035 
4.745461531666345 
5.068929686522471 
5.327512040847216 
5.543084006412836 
5.71585492764403 
5.7903775614786905 
-2.4594563025171388 
-1.3214104352071099 
0.7548318542415378 
2.3837130952668693 
3.5508956954322892 
4.35284787808856 
4.910169494140062 
5.319988015591044 
5.645169375026499 
5.919988776205187 
6.157077211580397 
6.266576298435329 
-2.336544944903067 
-1.2815960152030021 
0.6658125801638903 
2.2563191830575358 
3.472289746897765 
4.3673285216433815 
5.023960536183564 
5.520740533773007 
5.917530851337343 
6.253765202134525 
6.551249758603364 
6.692027150657891 
-2.168816255493534 
-1.1664322924973851 
0.6854067013176937 
2.2200537443942303 
3.4382869670615603 
4.379974092067477 
5.105012750403224 
5.674103775150605 
6.137765745754868 
6.533442542760186 
6.886509101555786 
7.054862552942507 
-1.9593118229735509 
-0.9873866563652174 
0.7991942981527256 
2.2770433738422997 
3.4690147762619543 
4.417566631655577 
5.174974443567486 
5.791219461307724 
6.307237984884736 
6.754198843335731 
7.155518258317901 
7.347284391843829 
-1.710301595268242 
-0.7538822172112307 
0.9924546207013054 
2.4218633112108674 
3.5734604160156143 
4.4987324862520595 
5.253510434674635 
5.886367390257786 
6.432789562315308 
6.91682585592462 
7.35601610054473 
7.566347020366736 
-1.425417659530921 
-0.47495413815556997 
1.2513621667499695 
2.6464998821390453 
3.7550202031114166 
4.636715667110617 
5.357446409594925 
5.97395108879205 
6.523591880773591 
7.025607148342866 
7.489713491047457 
7.713211346565778 
-1.1105754559195677 
-0.15989976912378587 
1.5633695103238234 
2.942302701769438 
4.014708694826621 
4.843140108039276 
5.503781232897602 
6.069055442028009 
6.589364362327373 
7.085642863353165 
7.5597103977683835 
7.79081024823583 
-0.7723809417785144 
0.1840165670356466 
1.919657472139836 
3.30056950170601 
4.349688039342061 
5.127025584557206 
5.71258467606072 
6.192862534652254 
6.642290218218803 
7.100578393432774 
7.5668680768972365 
7.799690860771017 
-0.41130072468904405 
0.5613635064795516 
2.3252990064727475 
3.7162276983929203 
4.748108313190501 
5.482003120947615 
5.995446650720902 
6.374063085073826 
6.708754921340503 
7.0758613999527835 
7.503685859087794 
7.732251155242457 
0.0031009968835493257 
1.015674762628206 
2.8268841188171443 
4.202889089130933 
5.185694286558073 
5.865504809515108 
6.317112530426311 
6.608981293755875 
6.8190091253327445 
7.042992480095458 
7.361937267193483 
7.552290783287899 
0.6012206902970683 
1.7284868661662722 
3.5760558071211177 
4.7867516404170765 
5.6161582120949625 
6.185485279212486 
6.562207831891812 
6.7890446937464555 
6.906092742336092 
6.979375139957466 
7.1437494407257365 
7.2714615196369925 
2.511820011631186 
3.315332179662133 
4.59307124278539 
5.379377903193894 
5.909309578312975 
6.2825085275344215 
6.543666629086211 
6.708182767489324 
6.774369807617655 
6.73008419394513 
6.563454738612023 
6.448592860809887 
4.051793251011015 
4.444860851292078 
5.145340907779079 
5.652820270436489 
5.996744218508248 
6.2501831733797655 
6.441589522541957 
6.573340222565424 
6.624422517006233 
6.532757161918872 
6.1104929150747065 
5.781050053646203 
</DataArray>
</PointData>
<CellData>
</CellData>
<Points>
<DataArray type="Float64" Name="Points" NumberOfComponents="3" format="ascii">
0.0 50.0 0.0
0.0 45.4545441 0.0
0.0 40.9090919 0.0
0.0 36.363636 0.0
0.0 31.818182 0.0
0.0 27.272728 0.0
0.0 22.727272 0.0
0.0 18.181818 0.0
0.0 13.636364 0.0
0.0 9.090909 0.0
0.0 4.5454545 0.0
0.0 0.0 0.0
2.52631569 50.5263176 0.0
2.52631569 46.1435394 0.0
2.52631569 41.7607651 0.0
2.52631569 37.3779907 0.0
2.52631569 32.9952164 0.0
2.52631569 28.6124401 0.0
2.52631569 24.2296658 0.0
2.52631569 19.8468895 0.0
2.52631569 15.4641151 0.0
2.52631569 11.0813398 0.0
2.52631569 6.69856453 0.0
2.52631569 2.31578946 0.0
5.05263138 51.0526314 0.0
5.05263138 46.8325348 0.0
5.05263138 42.612442 0.0
5.05263138 38.3923454 0.0
5.05263138 34.1722488 0.0
5.05263138 29.9521523 0.0
5.05263138 25.7320576 0.0
5.05263138 21.511961 0.0
5.05263138 17.2918663 0.0
5.05263138 13.0717707 0.0
5.05263138 8.85167503 0.0
5.05263138 4.63157892 0.0
7.57894754 51.578949 0.0
7.57894754 47.5215302 0.0
7.57894754 43.4641151 0.0
7.57894754 39.4067001 0.0
7.57894754 35.3492813 0.0
7.57894754 31.2918663 0.0
7.57894754 27.2344494 0.0
7.57894754 23.1770344 0.0
7.57894754 19.1196175 0.0
7.57894754 15.0622005 0.0
7.57894754 11.0047846 0.0
7.57894754 6.94736862 0.0
10.1052628 52.1052628 0.0
10.1052628 48.2105255 0.0
10.1052628 44.3157883 0.0
10.1052628 40.421051 0.0
10.1052628 36.5263176 0.0
10.1052628 32.6315804 0.0
10.1052628 28.7368412 0.0
10.1052628 24.8421059 0.0
10.1052628 20.9473686 0.0
10.1052628 17.0526314 0.0
10.1052628 13.1578951 0.0
10.1052628 9.26315784 0.0
12.6315794 52.6315804 0.0
12.6315794 48.8995209 0.0
12.6315794 45.1674652 0.0
12.6315794 41.4354057 0.0
12.6315794 37.7033501 0.0
12.6315794 33.9712906 0.0
12.6315794 30.2392349 0.0
12.6315794 26.5071774 0.0
12.6315794 22.7751198 0.0
12.6315794 19.0430622 0.0
12.6315794 15.3110046 0.0
12.6315794 11.5789471 0.0
15.1578951 53.1578941 0.0
15.1578951 49.5885162 0.0
15.1578951 46.0191383 0.0
15.1578951 42.4497604 0.0
15.1578951 38.8803825 0.0
15.1578951 35.3110046 0.0
15.1578951 31.7416267 0.0
15.1578951 28.1722488 0.0
15.1578951 24.6028709 0.0
15.1578951 21.033493 0.0
15.1578951 17.4641151 0.0
15.1578951 13.8947372 0.0
17.6842098 53.6842117 0.0
17.6842098 50.2775116 0.0
17.6842098 46.8708153 0.0
17.6842098 43.4641151 0.0
17.6842098 40.057415 0.0
17.6842098 36.6507187 0.0
17.6842098 33.2440186 0.0
17.6842098 29.8373203 0.0
17.6842098 26.4306221 0.0
17.6842098 23.0239239 0.0
17.6842098 19.6172256 0.0
17.6842098 16.2105255 0.0
20.2105255 54.2105255 0.0
20.2105255 50.966507 0.0
20.2105255 47.7224884 0.0
20.2105255 44.4784698 0.0
20.2105255 41.2344513 0.0
20.2105255 37.9904289 0.0
20.2105255 34.7464104 0.0
20.2105255 31.5023918 0.0
20.2105255 28.2583733 0.0
20.2105255 25.0143547 0.0
20.2105255 21.7703342 0.0
20.2105255 18.5263157 0.0
22.7368412 54.7368431 0.0
22.7368412 51.6555023 0.0
22.7368412 48.5741615 0.0
22.7368412 45.4928246 0.0
22.7368412 42.4114838 0.0
22.7368412 39.330143 0.0
22.7368412 36.2488022 0.0
22.7368412 33.1674652 0.0
22.7368412 30.0861244 0.0
22.7368412 27.0047855 0.0
22.7368412 23.9234447 0.0
22.7368412 20.8421059 0.0
25.2631588 55.2631569 0.0
25.2631588 52.3444977 0.0
25.2631588 49.4258385 0.0
25.2631588 46.5071754 0.0
25.2631588 43.5885162 0.0
25.2631588 40.669857 0.0
25.2631588 37.7511978 0.0
25.2631588 34.8325348 0.0
25.2631588 31.9138756 0.0
25.2631588 28.9952145 0.0
25.2631588 26.0765553 0.0
25.2631588 23.1578941 0.0
27.7894745 55.7894745 0.0
27.7894745 53.033493 0.0
27.7894745 50.2775116 0.0
27.7894745 47.5215302 0.0
27.7894745 44.7655487 0.0
27.7894745 42.0095711 0.0
27.7894745 39.2535896 0.0
27.7894745 36.4976082 0.0
27.7894745 33.7416267 0.0
27.7894745 30.9856453 0.0
27.7894745 28.2296658 0.0
27.7894745 25.4736843 0.0
30.3157902 56.3157883 0.0
30.3157902 53.7224884 0.0
30.3157902 51.1291847 0.0
30.3157902 48.5358849 0.0
30.3157902 45.942585 0.0
30.3157902 43.3492813 0.0
30.3157902 40.7559814 0.0
30.3157902 38.1626778 0.0
30.3157902 35.5693779 0.0
30.3157902 32.976078 0.0
30.3157902 30.3827744 0.0
30.3157902 27.7894745 0.0
32.8421059 56.8421059 0.0
32.8421059 54.4114838 0.0
32.8421059 51.9808617 0.0
32.8421059 49.5502396 0.0
32.8421059 47.1196175 0.0
32.8421059 44.6889954 0.0
32.8421059 42.2583733 0.0
32.8421059 39.8277512 0.0
32.8421059 37.3971291 0.0
32.8421059 34.966507 0.0
32.8421059 32.5358849 0.0
32.8421059 30.1052628 0.0
35.3684196 57.3684196 0.0
35.3684196 55.1004791 0.0
35.3684196 52.8325348 0.0
35.3684196 50.5645943 0.0
35.3684196 48.2966499 0.0
35.3684196 46.0287094 0.0
35.3684196 43.7607651 0.0
35.3684196 41.4928246 0.0
35.3684196 39.2248802 0.0
35.3684196 36.9569397 0.0
35.3684196 34.6889954 0.0
35.3684196 32.421051 0.0
37.8947372 57.8947372 0.0
37.8947372 55.7894745 0.0
37.8947372 53.6842117 0.0
37.8947372 51.578949 0.0
37.8947372 49.4736824 0.0
37.8947372 47.3684196 0.0
37.8947372 45.2631569 0.0
37.8947372 43.1578941 0.0
37.8947372 41.0526314 0.0
37.8947372 38.9473686 0.0
37.8947372 36.8421059 0.0
37.8947372 34.7368431 0.0
40.421051 58.421051 0.0
40.421051 56.4784698 0.0
40.421051 54.5358849 0.0
40.421051 52.5932999 0.0
40.421051 50.6507187 0.0
40.421051 48.7081337 0.0
40.421051 46.7655487 0.0
40.421051 44.8229675 0.0
40.421051 42.8803825 0.0
40.421051 40.9377975 0.0
40.421051 38.9952164 0.0
40.421051 37.0526314 0.0
42.9473686 58.9473686 0.0
42.9473686 57.1674652 0.0
42.9473686 55.387558 0.0
42.9473686 53.6076546 0.0
42.9473686 51.8277512 0.0
42.9473686 50.0478477 0.0
42.9473686 48.2679443 0.0