<?xml version="1.0"?>
<VTKFile type="UnstructuredGrid" version="0.1" byte_order="LittleEndian" compressor="vtkZLibDataCompressor">
<UnstructuredGrid>
<Piece NumberOfPoints="759" NumberOfCells="694">
<PointData>
<DataArray type="Float64" Name="displacement" NumberOfComponents="3" format="ascii" >
-0.002200117477987444 0.027519475998384876  0.
0.0 0.05  0.
0.0 0.05  0.
0.015246450747222376 -5.316956924804378e-05  0.
0.009014288341919585 -2.1839181964463007e-05  0.
-0.009034614673830288 3.723290605416229e-06  0.
-0.015250317116453499 1.8522471239846725e-05  0.
0.0 0.05  0.
0.0 -0.05  0.
-0.002201619286204046 -0.027527657271060695  0.
0.0 -0.05  0.
0.0 -0.05  0.
0.008942229747504568 0.003323208892707052  0.
0.008722452503531384 0.006632286089976291  0.
0.008363187040348337 0.009861313840842269  0.
0.007878809367154441 0.01294968996045125  0.
0.0072879307048822235 0.015835914560518027  0.
0.006582210309601183 0.018563941027891065  0.
0.005794291756030216 0.0210382927507801  0.
0.0049311527125774236 0.023235204944860578  0.
0.003998457922989164 0.025117995326481065  0.
0.003005439446619468 0.0266355326159046  0.
0.00196939428689191 0.027734273811022565  0.
0.0009123040660091306 0.028375518044864424  0.
-0.00014462341817819455 0.028543463571487734  0.
-0.0011755289075123375 0.028258688283177128  0.
-0.0007149928427230872 0.027448751390325658  0.
-0.0003290658460992891 0.02781861109698961  0.
-0.00021786666084997594 0.028587736672103854  0.
-0.00021527198633606733 0.02971694181276845  0.
-0.0002495044662155912 0.03109883135920632  0.
-0.00028377797247418525 0.032789268203294614  0.
-0.00029653131113877945 0.034806104371176906  0.
-0.0002791462762811857 0.03703477995804717  0.
-0.00022528105909533553 0.039504610911913575  0.
-0.00014655743135113012 0.04206765135898261  0.
-6.20402652015917e-05 0.04468626395819474  0.
-6.662757682746187e-08 0.04734865708078282  0.
0.0 0.05  0.
0.0 0.05  0.
0.0 0.05  0.
0.0 0.05  0.
0.0 0.05  0.
0.0 0.05  0.
0.0 0.05  0.
0.0 0.05  0.
0.0 0.05  0.
0.0 0.05  0.
0.0 0.05  0.
0.0037769664575415395 0.0429564035813893  0.
0.006062970626994414 0.03722865431380452  0.
0.007961664557425897 0.031832233456824226  0.
0.009579144288375538 0.026677627420843543  0.
0.011119666002457772 0.021444909670646592  0.
0.012460921490371228 0.01661998586049772  0.
0.01360290574542319 0.012116450014547071  0.
0.01449022104683074 0.007885563101995209  0.
0.015054635776721 0.0038644552528324873  0.
0.014471002676647953 -3.7217131550207074e-05  0.
0.013654719120584805 -1.851006832655882e-05  0.
0.012855776777672 1.8811723048648513e-06  0.
0.012144040953389409 2.0068725280525753e-05  0.
0.01151470350202443 2.8046042639261448e-05  0.
0.011011562305956879 3.202240849458488e-05  0.
0.010624380830115807 3.112949743464415e-05  0.
0.01035477136012572 2.807196341429666e-05  0.
0.010211757090599797 1.9376518333225532e-05  0.
0.010159521939462138 1.2878648340497374e-05  0.
0.010051786955873315 3.48468157823603e-07  0.
0.0 0.05  0.
0.0 0.05  0.
0.0 0.05  0.
0.0 0.05  0.
0.0 0.05  0.
0.0 0.05  0.
0.0 0.05  0.
-0.003217878727722982 0.026347868030807454  0.
-0.004208911915166962 0.024740931204370546  0.
-0.0051789897293355 0.022692267857332662  0.
-0.0060938844260652915 0.020212950912699118  0.
-0.006942246170474043 0.017338870038269824  0.
-0.007669088451125434 0.014190223602650268  0.
-0.008261916884402408 0.010797314067890884  0.
-0.008687399034856796 0.007251847363574117  0.
-0.008946289958503339 0.003654095374955238  0.
-0.010030703694629722 -5.933749543364971e-06  0.
-0.01015969739447085 -9.275361349383617e-06  0.
-0.0101985746299301 -1.5155578782239264e-05  0.
-0.010296253931230997 -2.9190682423002842e-05  0.
-0.010466355660650711 -3.1370240448297015e-05  0.
-0.010748356938058931 -3.9317031344665493e-05  0.
-0.011149098322006144 -4.4112737312486084e-05  0.
-0.011646963561198705 -3.945593131262021e-05  0.
-0.012245934433118739 -2.8648923127915625e-05  0.
-0.012937288896988695 -1.4949499229131159e-05  0.
-0.013696846313587996 -2.715614486712815e-06  0.
-0.014488186064852799 8.508659465162544e-06  0.
-0.015037695699019001 0.004088523580392286  0.
-0.014428974932151482 0.008253432099343455  0.
-0.013495332201919624 0.012594835562581137  0.
-0.012321351847846829 0.017159927222502265  0.
-0.01097753721817144 0.021956902570619694  0.
-0.009497348583125356 0.026961168219523827  0.
-0.007876179620493003 0.032103292822301004  0.
-0.0060052077728901445 0.03738734465365128  0.
-0.0037437482746072704 0.04302615907213885  0.
0.0 -0.05  0.
0.0 -0.05  0.
0.0 -0.05  0.
0.0 -0.05  0.
0.0 -0.05  0.
0.0 -0.05  0.
0.0 -0.05  0.
0.0 -0.05  0.
0.0 -0.05  0.
0.0 -0.05  0.
0.0 -0.05  0.
8.91259809303145e-07 -0.04737951698324694  0.
-5.9921898481077384e-05 -0.04471369182908715  0.
-0.0001447726503997418 -0.04206740757441737  0.
-0.0002205275181992024 -0.03955658782062082  0.
-0.00027211289978923734 -0.037113027607594946  0.
-0.0002915676855839314 -0.034831552781268656  0.
-0.0002777545065525546 -0.03285805327633338  0.
-0.00024392398602596232 -0.031228327551739474  0.
-0.00021278118592078316 -0.029769941136156993  0.
-0.0002152614995420089 -0.02858971296456725  0.
-0.0003312805093487948 -0.027810699623536057  0.
-0.0007315195664002681 -0.02744950493782247  0.
-0.0011808569269158053 -0.02825762111551518  0.
-0.0001358270014524816 -0.02854974771395044  0.
0.0009149083334281228 -0.028376735407171796  0.
0.0019642157519040027 -0.027740016993394727  0.
0.002990373654407406 -0.026656729367785077  0.
0.003978677128586472 -0.025155915767067796  0.
0.004913324758228429 -0.023281780203699736  0.
0.005782239765114775 -0.02108041552079502  0.
0.006564470977272699 -0.018611796395471503  0.
0.007257711007149304 -0.015927885927673694  0.
0.007863131893156235 -0.012993276194046343  0.
0.008354665415844651 -0.009886399149404146  0.
0.008716196303854614 -0.0066595775767385144  0.
0.008938196224745964 -0.0033605671056994016  0.
0.01504048189664591 -0.004004921793119773  0.
0.01447231187581582 -0.0079819227774197  0.
0.013596205241626861 -0.012145718926254052  0.
0.012462145865354846 -0.016616962930152655  0.
0.011151084599121413 -0.0213378900501043  0.
0.009663650247250069 -0.026399397438404335  0.
0.008009236406491229 -0.03168883274960883  0.
0.006094741612707908 -0.03714337922034944  0.
0.003804308462806694 -0.042893486775511296  0.
-0.008948603438319387 -0.0036688772099672047  0.
-0.00868652730980217 -0.007302273977892081  0.
-0.008255446827764528 -0.010846825307489759  0.
-0.007664804083637956 -0.014233040993453934  0.
-0.006921242625416098 -0.01742903240389482  0.
-0.0060801911426618905 -0.020252992280480983  0.
-0.005161107316113384 -0.022706724576632253  0.
-0.0041961582655249755 -0.02474638105664191  0.
-0.0032065801327328383 -0.026356471546807033  0.
0.0 -0.05  0.
0.0 -0.05  0.
0.0 -0.05  0.
0.0 -0.05  0.
0.0 -0.05  0.
0.0 -0.05  0.
0.0 -0.05  0.
-0.003730730418868478 -0.04305610947702653  0.
-0.005989398142219692 -0.03742799733132857  0.
-0.007859079490917695 -0.032152508947286475  0.
-0.009477332244125404 -0.027024053505542798  0.
-0.010956717259540654 -0.02202583985333112  0.
-0.012307293794411298 -0.017208994357238168  0.
-0.013490767643571263 -0.012612095995931175  0.
-0.014431435631144957 -0.008240813196963957  0.
-0.015041676217136809 -0.004056644362599684  0.
0.005561692008418506 0.028746378194034874  0.
-6.699559248886078e-05 0.04014405405325894  0.
5.358003469136562e-06 0.04034108267511707  0.
8.641965555558764e-05 0.040030914501666015  0.
0.00026878986379665017 0.03924358733882854  0.
0.0006312737727725913 0.03809110907473101  0.
0.0012370386688890993 0.036593024713691115  0.
0.0021506116964412417 0.034712303430888145  0.
0.0034861317967124533 0.032275555407352746  0.
0.005504921174486449 0.02508381486135072  0.
0.005341758828084115 0.022433845058599505  0.
0.0051388741340378935 0.02031760135057426  0.
0.0049239491200941815 0.01858892250429331  0.
0.004726473489745559 0.01721697760687712  0.
0.004594973311665051 0.01623992615477024  0.
0.0046250415976693 0.01578029302914248  0.
0.005023233757606594 0.01612858340899722  0.
0.0011998306029243333 0.045458521857395795  0.
0.0025631592701546367 0.04059473648787659  0.
0.003999473022253505 0.0352224716908589  0.
0.008335548928845384 0.027816578513044442  0.
0.007041586836183348 0.02847786695374544  0.
0.012646673493987029 0.004035910274799908  0.
0.01202991886339116 0.008175806923421295  0.
0.01100514586016945 0.012525060621841807  0.
0.00961599945509688 0.017148181493961995  0.
0.007856675416179265 0.02232102133051956  0.
0.0038528494080500133 0.018914967621883754  0.
0.0028039579835564604 0.021587219935599786  0.
0.001917893118499177 0.024034025184708804  0.
0.0012079088337258591 0.02611626530684774  0.
0.0006679684238415447 0.027689568447537782  0.
0.00026842132121952344 0.028642672207496764  0.
-4.3730419646823973e-05 0.028915536804893813  0.
-0.00033812658349916815 0.028507992985712674  0.
0.003371864793059591 0.01860454315417946  0.
0.0022672001299094352 0.021359334598427846  0.
0.0013723233680110855 0.023925739317000292  0.
0.0007210045217482089 0.02615598347276462  0.
0.0003109523059195365 0.02788139924759636  0.
9.509093439561885e-05 0.028961318349854527  0.
-1.0029653085548752e-05 0.029306717135192933  0.
-0.00011193511851697684 0.028918999748998298  0.
0.00331036755310336 0.019087804798651107  0.
0.0021743575501753077 0.021858126298396816  0.
0.0012617027782052198 0.02444879910690503  0.
0.0006080695264049727 0.026715608258022935  0.
0.0002212484073646958 0.028498420399187704  0.
4.990227432319814e-05 0.029645730748671665  0.
-3.0758203611955366e-06 0.030075201326127902  0.
-5.524443602968377e-05 0.029693230561646394  0.
0.0034163873901475756 0.020115051028633955  0.
0.002256186495020569 0.02289759455589686  0.
0.001314905231070871 0.025480192387127266  0.
0.000639673003075413 0.02773846322345757  0.
0.00023842362295786217 0.02952930013218559  0.
5.800112242491211e-05 0.030704200052169332  0.
-1.5466912868323751e-06 0.031214148315096214  0.
-5.416679376789273e-05 0.03082374182218429  0.
0.003575561026157066 0.02157688284996224  0.
0.0023800891778206737 0.024383638242471584  0.
0.0014206729997223153 0.02693805936428617  0.
0.0007201779486153252 0.029157597088223318  0.
0.00029079406460352504 0.030923316994979473  0.
8.642771455403396e-05 0.0320967119332564  0.
3.0599765302262697e-06 0.03250133307691046  0.
-7.095748266390504e-05 0.03213985959442196  0.
0.0037238189196027276 0.023442768327076653  0.
0.0024824128419583175 0.026280287123971235  0.
0.001497728326238919 0.028792398724581142  0.
0.0007776553049275371 0.030940066226294846  0.
0.0003350780723358187 0.032633025263760496  0.
0.00010890352354579115 0.033713995051460444  0.
5.548231061236207e-06 0.03408733435771737  0.
-8.685737089420399e-05 0.033756162652669876  0.
0.0038128377033861426 0.025748989842227895  0.
0.0025127815692623447 0.02859940971973896  0.
0.0015114064731849776 0.03102240996861138  0.
0.0007925445022764987 0.03304131444286605  0.
0.00035005497461367045 0.0346144548799767  0.
0.00011934411652592728 0.035643113617554845  0.
7.335266671222349e-06 0.035943186376221146  0.
-9.437895880435206e-05 0.03568158988026295  0.
0.0037745498807635787 0.02861298666323693  0.
0.002418938404924576 0.0313897824929991  0.
0.0014251756279040461 0.03362825034539625  0.
0.0007434227606618202 0.03543591452380553  0.
0.0003275731820537826 0.03682919888837467  0.
0.00011134949712033176 0.037734014692252064  0.
7.204324530769426e-06 0.03804332948369  0.
-8.833845336700328e-05 0.03778917519429667  0.
-3.650777427415432e-05 0.04254423194178943  0.
-5.2335394106087325e-06 0.04499259618485349  0.
1.3623871130020773e-05 0.047495467474004315  0.
2.2076356408614295e-06 0.04268523670264061  0.
-3.809495635492379e-07 0.045063840739576484  0.
-1.3037087895919027e-06 0.04750875014840911  0.
4.8262671537617085e-05 0.04240203779126214  0.
9.438529687203389e-06 0.044877894862456226  0.
-1.4109572780597478e-05 0.04741933980714312  0.
0.0001778981565751203 0.04181334368947565  0.
7.91364487181903e-05 0.044494464522018655  0.
5.245423431616648e-06 0.047235810905514874  0.
0.0004550295330485114 0.04095272822436314  0.
0.0002551634579329937 0.04393708456699744  0.
8.223632979917165e-05 0.04696998007844972  0.
0.0009311051652495127 0.0398449411072096  0.
0.0005726553100299738 0.043230000351782816  0.
0.0002362099161870534 0.046635242909289026  0.
0.0016512182673399638 0.038498248092967265  0.
0.0010557209122562462 0.04239962964958435  0.
0.00047387026116741884 0.04625131403065266  0.
0.0026648991360393596 0.03691535880145261  0.
0.0017202769989907852 0.041486085732298936  0.
0.0007974039911703216 0.045842642957834294  0.
0.0016852092904938336 0.04510121056279438  0.
0.002368185028165293 0.044647995634460924  0.
0.003521577228542043 0.039877832893376625  0.
0.004720235076120514 0.03890799526948812  0.
0.005301585340057072 0.034311476999739396  0.
0.006623477691121883 0.03329246457839868  0.
0.009976817482399309 0.02240699529130333  0.
0.011432066506716895 0.017433490953330223  0.
0.01267729906082003 0.012761893011601858  0.
0.013647857209123183 0.008306675893405228  0.
0.014259664006593767 0.004076347925173597  0.
0.008871522030812472 0.022742932153142385  0.
0.010478844478063756 0.017554677291615625  0.
0.011809400601733794 0.01281348623080625  0.
0.01282117778197375 0.008366349710973062  0.
0.013451341290037604 0.00411988024994458  0.
0.011931801132542778 0.003854810529923269  0.
0.011313490998501671 0.0035945011166090427  0.
0.01080650794322094 0.003307701478340026  0.
0.010413223751544277 0.0030142182764998915  0.
0.010151624811569926 0.0027543120525034184  0.
0.010006373698595776 0.002539277950291237  0.
0.00995509568027299 0.002427402765882584  0.
0.009863130759928848 0.0025215605858801794  0.
0.011338337493164898 0.007794226686392184  0.
0.010702668082474867 0.007223978260461013  0.
0.010210043645347933 0.0066333995216070595  0.
0.009821889808252217 0.006045472975523761  0.
0.009564634989119004 0.005533980709585733  0.
0.009409972992812238 0.005114198984867564  0.
0.009361684813017159 0.004899133666837935  0.
0.00932668151230985 0.005093645040868906  0.
0.010319713828394014 0.011866157444574676  0.
0.0097298435111854 0.010955083045763928  0.
0.009265599381564155 0.010044403045340043  0.
0.008894329760337112 0.009151996803658977  0.
0.008627965021073032 0.008368197584642858  0.
0.00847487351589347 0.0077655947188275285  0.
0.008439433989281918 0.0074662904707178  0.
0.008492608002537084 0.007742877543738319  0.
0.00895633330632917 0.016062740036374902  0.
0.008435608627514357 0.014750804028433526  0.
0.00802584051779694 0.013479135071971677  0.
0.007690845415325306 0.012286676865528185  0.
0.007439380454064685 0.011272554589378805  0.
0.007288953135269442 0.010512266638248995  0.
0.0072733339262537645 0.010143067486391908  0.
0.007438427850003453 0.010479001736177882  0.
0.007323097117145325 0.020528314174820882  0.
0.006934477236824676 0.018641546986675018  0.
0.006608099863184191 0.01692674321895404  0.
0.006326803235717781 0.015444400230685669  0.
0.0061000377973175176 0.014228954658004068  0.
0.005959419176737402 0.01334145632752329  0.
0.0059698829227490405 0.012917853145840322  0.
0.006259013270767658 0.013280532326118614  0.
-0.004241401551919995 0.030308036104440664  0.
-0.000565639637670355 0.03839966391900936  0.
-0.001181289988184299 0.03688799857150396  0.
-0.002299530074308818 0.03419108589003311  0.
-0.0029013913274422887 0.03650113172459508  0.
-0.0017753008153658086 0.04146447523568004  0.
-0.0007990299035501677 0.04588305222726331  0.
-0.004261258201194512 0.01808609846148168  0.
-0.0036701165030303983 0.01796938378727262  0.
-0.003479041754697688 0.018604935969793943  0.
-0.003509484598537007 0.019548974634011212  0.
-0.003622912170519895 0.020878626931905453  0.
-0.003770241138573625 0.02264340420094347  0.
-0.003939596645255766 0.024701338550686847  0.
-0.004131845795855461 0.0270053487896078  0.
-0.011998837212016323 0.0042218208795148995  0.
-0.011258842599462639 0.008590470040979898  0.
-0.01008296739686331 0.013196433767411269  0.
-0.008501558285648135 0.018158542848570252  0.
-0.0065731866980463976 0.02364109043293534  0.
-0.008282483388116052 0.028239146341640653  0.
-0.007042333020088792 0.029157277937624543  0.
-0.005748981986214158 0.029765105712947854  0.
-0.00046304077292016636 0.04631722043996065  0.
-0.00021860517853578262 0.04677374571785222  0.
-6.935557826513787e-05 0.04712618363030261  0.
-0.0010579419527383606 0.042472802621114844  0.
-0.0005345788975994963 0.04347389991011676  0.
-0.00022242452617966162 0.044192448974279326  0.
-0.0017051090900818801 0.03839771779041538  0.
-0.0008685731354845586 0.040242974871084254  0.
-0.0004031497889751342 0.041280451774665834  0.
-0.0006711962293397918 0.03567805466495945  0.
-0.0007094644616058131 0.033217195754131054  0.
-0.0006890278300473706 0.031107353034698266  0.
-0.0006364064988570389 0.029345883688690396  0.
-0.0005858246661363249 0.027958709254957054  0.
-0.0005914944408788081 0.02683484314884344  0.
-0.0007384634850260838 0.026077055573691745  0.
-0.0012827424938212616 0.02579552705050457  0.
-0.0013742304198851672 0.03366563522239956  0.
-0.0014250793801617746 0.030990517763887566  0.
-0.0013892443256169498 0.028784910540620337  0.
-0.001314119772129156 0.02698097066479022  0.
-0.0012460811578829164 0.025575004608398347  0.
-0.001250397178463576 0.02448824000725433  0.
-0.0014276880220292127 0.023755524943086925  0.
-0.0020571453874664663 0.02361240300865462  0.
-0.0024897679747917026 0.03087776326819086  0.
-0.002506593895961655 0.028143952359671296  0.
-0.002423795900304425 0.025941201593109836  0.
-0.002318592722569516 0.0241145537719637  0.
-0.0022303362667656936 0.022717843054425608  0.
-0.002214039583567501 0.0217276052018412  0.
-0.002418376643018771 0.021002920756944096  0.
-0.0030658277318016537 0.02102578435953595  0.
-0.005599733069079027 0.015010022631626794  0.
-0.00695200164302484 0.011864504717727906  0.
-0.008191861048790557 0.008731744607967514  0.
-0.009189447044089413 0.005665825209534457  0.
-0.00981414850961255 0.0028093649803475605  0.
-0.00512337973229116 0.014769560536433978  0.
-0.006642205577242215 0.01155203685780673  0.
-0.008058607437159335 0.008422641642712645  0.
-0.009192323206865659 0.0054717515821548195  0.
-0.00991180982010239 0.0026890523206214456  0.
-0.004968953920937691 0.015294974036106334  0.
-0.006531544797906923 0.011994508843188655  0.
-0.00801644946158156 0.008726969217268492  0.
-0.009191933578275281 0.005668869124107348  0.
-0.009944743583276327 0.002780346456386491  0.
-0.005003633477753816 0.01619424701687559  0.
-0.006576715755721143 0.012805525905857526  0.
-0.008085396261753088 0.00933919927301648  0.
-0.0092757936794794 0.006069903651628194  0.
-0.010034968466304287 0.0029723700653780083  0.
-0.005147634993846874 0.01737297835342071  0.
-0.006746592145985793 0.01378934899651053  0.
-0.008269383794755173 0.010088164398569334  0.
-0.009456926941700555 0.006569997758156337  0.
-0.010210899185421701 0.0032209527511310675  0.
-0.005344772406326272 0.01892048305203372  0.
-0.007014123496080167 0.014901780652874808  0.
-0.008542277647546071 0.010905235224332118  0.
-0.009735170989637843 0.007111643503108407  0.
-0.010488862845002844 0.0034889563047382282  0.
-0.005639106324085529 0.020461259511967724  0.
-0.007382588984081455 0.016042413094275617  0.
-0.008940706146454362 0.011752264532404124  0.
-0.010134390555945335 0.007664991731578054  0.
-0.010890791524638819 0.003760694754058219  0.
-0.006030122991518922 0.022055142971006348  0.
-0.00786397247330614 0.01717654644088005  0.
-0.009455545405146822 0.012562938420097137  0.
-0.01064810126110045 0.008181727172364312  0.
-0.011390608118231095 0.004015600305139019  0.
-0.012696957907836336 0.004351644021183326  0.
-0.013464595867464945 0.0043815396646775815  0.
-0.014264482892113243 0.004300122060094109  0.
-0.011996464600748668 0.008841737063562762  0.
-0.012788300499978164 0.008881102626532572  0.
-0.013606986898762888 0.008677885550888992  0.
-0.01085389318177796 0.013550568284037327  0.
-0.011703828280274498 0.013545081540590356  0.
-0.012597412622492178 0.013222449268776148  0.
-0.009364030605958784 0.018536759339737446  0.
-0.010328092781582462 0.01845825164048981  0.
-0.011325664371931476 0.01798548535463253  0.
-0.007627562856332464 0.023923164422812147  0.
-0.00874822965708418 0.023660643703090543  0.
-0.009871810621204508 0.022987632041997254  0.
-0.006587112095736753 0.033594072903497245  0.
-0.0046992133186539 0.039068942569711114  0.
-0.0023576644874836175 0.04471351435253482  0.
-0.005322661536784016 0.034661631100235096  0.
-0.003526986408175775 0.04004614014987345  0.
-0.0016812627215208682 0.04516953024065933  0.
-0.004101611853154821 0.03548936342926954  0.
-0.002596552780715903 0.04070701187702551  0.
-0.0012020685913571995 0.0455110774196136  0.
0.005556693771263606 -0.02874910021498893  0.
-6.524649927922592e-05 -0.040162566957822936  0.
6.466485350681756e-06 -0.04038690204496857  0.
8.745263533052136e-05 -0.04012773208692093  0.
0.0002698968794845722 -0.039319794276509216  0.
0.0006309692886496726 -0.03816284327641681  0.
0.0012336757776780858 -0.036662888268751116  0.
0.002144126895009164 -0.034773391675069765  0.
0.0034788530644594214 -0.03231397454363459  0.
0.004006128820086979 -0.03521540743608683  0.
0.0025720460335489368 -0.04057452466245772  0.
0.0012038687523868298 -0.04544371086821441  0.
0.00499365024174734 -0.016156511102679467  0.
0.004602988015178583 -0.015827838756341646  0.
0.0045713438564248575 -0.01630762849357736  0.
0.0046989093116665695 -0.017297537625578438  0.
0.004894068343886444 -0.018670697281360952  0.
0.00510974254331058 -0.02038910423851473  0.
0.005315440213017083 -0.022484344475473712  0.
0.005485706823678247 -0.025106186610671145  0.
0.012640672890238886 -0.004031098566958284  0.
0.012013867057684466 -0.008166467581088148  0.
0.010993147995754557 -0.012512528420255702  0.
0.0096039088012822 -0.017135117975193143  0.
0.007847396512803678 -0.02231143736267945  0.
0.008359626435721773 -0.027731818850715715  0.
0.00704971623814255 -0.02844053652427839  0.
0.0007975671372996632 -0.045847295643749224  0.
0.00047251709700519754 -0.04626218888456361  0.
0.0002345214909769625 -0.046651614071248224  0.
8.122090449490516e-05 -0.04699393118808054  0.
4.546777856456106e-06 -0.047273932369829  0.
-1.4294682141875277e-05 -0.04748259188483044  0.
-1.075631548418542e-06 -0.047613989367032435  0.
1.3901086546356962e-05 -0.0475545332998551  0.
0.0017231557404122138 -0.04149545672118652  0.
0.001054610389669113 -0.04242030157334626  0.
0.0005698205641097217 -0.04326162419524323  0.
0.00025212151509365995 -0.04398266722852514  0.
7.663103869873564e-05 -0.044563372363815267  0.
7.802589982583086e-06 -0.044990290987524606  0.
-2.1413715413789867e-07 -0.04515483377455088  0.
-4.240776461359956e-06 -0.04504550990650799  0.
0.002664694223145473 -0.036933671525979705  0.
0.0016461630684269112 -0.03853268832187808  0.
0.0009250181190436443 -0.0398938396667463  0.
0.0004501525614326558 -0.04101542894599226  0.
0.00017478450940249164 -0.041896726004022646  0.
4.670659089795051e-05 -0.042525430462650976  0.
2.5593664360411423e-06 -0.04269985264491024  0.
-3.5725836973190286e-05 -0.04255611707234495  0.
-8.400350633062965e-05 -0.03790870318565495  0.
-9.04539649798277e-05 -0.035757765567451  0.
-8.422573360069571e-05 -0.03384813467374376  0.
-6.909849865684491e-05 -0.03227737963864442  0.
-5.335897916399018e-05 -0.030815118810116178  0.
-5.41475164802046e-05 -0.0296691371967216  0.
-0.00011719637081846869 -0.028892957180080413  0.
-0.00034857115410481744 -0.02849639061983108  0.
9.676191864621725e-06 -0.038171241653789885  0.
1.0748383100354099e-05 -0.036066464575670455  0.
9.033603442858755e-06 -0.034172313528701224  0.
4.054876961078335e-06 -0.03260882039967331  0.
6.298078979904351e-07 -0.03116808018533042  0.
-2.959427558599807e-06 -0.03003090094365843  0.
-8.659404143411763e-06 -0.02928708989816331  0.
-3.936411161608672e-05 -0.02890834662432172  0.
0.00011564808818101134 -0.03783164383897068  0.
0.00012492481712861466 -0.03569594035265302  0.
0.00011535818327946044 -0.03377306196792196  0.
8.844523412388452e-05 -0.03209576921152287  0.
6.159418440556755e-05 -0.030717331251013624  0.
5.1045383658231876e-05 -0.0296313340027443  0.
9.758630933161769e-05 -0.02895061893281094  0.
0.00027691366398003463 -0.028636951282740568  0.
0.00033394962725447676 -0.03688712601888873  0.
0.00035751806697594007 -0.034651602320806406  0.
0.0003450746800855114 -0.032677064140075505  0.
0.00029644784989111796 -0.030949688719590345  0.
0.00024188528773885472 -0.029559914438063082  0.
0.0002194923975796993 -0.028518825296963216  0.
0.00030806569600503724 -0.027898945175571774  0.
0.0006707544080666167 -0.027694878823492045  0.
0.0007494921490526401 -0.035508942033031364  0.
0.0007978046522828242 -0.03311356688785724  0.
0.0007843155270714482 -0.031018845383876923  0.
0.0007267143943745208 -0.029241442125896796  0.
0.00064105785406561 -0.027810907403187052  0.
0.0005960417222357554 -0.026780772156360298  0.
0.000706087318266463 -0.026212335025583112  0.
0.0011994840746078746 -0.0261455498966313  0.
0.0014326729251981944 -0.03372064312768836  0.
0.001512901893873402 -0.03113475934888786  0.
0.0015027547477807206 -0.02891599982622697  0.
0.0014132867962800607 -0.027059582983501668  0.
0.0013003828124981314 -0.025594656360206556  0.
0.0012315441787774336 -0.024555906028940387  0.
0.0013421465070923638 -0.02401992691485657  0.
0.0019008819817609103 -0.02409074563252858  0.
0.002425528287569952 -0.03149299786748053  0.
0.00251228717348738 -0.02872319191678979  0.
0.0024707730437397665 -0.026411187713453334  0.
0.002355230035932028 -0.024517049151276612  0.
0.0022180320939550325 -0.023030876618062874  0.
0.002131665743795312 -0.02198405237666881  0.
0.002228507553520658 -0.021465709145507893  0.
0.002787903707581437 -0.021654226659571625  0.
0.003761918563252637 -0.028681576625784935  0.
0.0037899147504324242 -0.02583910671417461  0.
0.0036914490284298894 -0.023546725279892735  0.
0.00353520990470412 -0.021687200779070385  0.
0.003372264000507619 -0.020224710801603398  0.
0.003268159591202762 -0.01918772680957215  0.
0.0033407032655041477 -0.01868336851733848  0.
0.00384319815629051 -0.018961187041478186  0.
0.006228391606401417 -0.013292646620439398  0.
0.007423778813783441 -0.010464842091571903  0.
0.008491088476817394 -0.00771305082216097  0.
0.009331446342212174 -0.005064711285418463  0.
0.009867189195561165 -0.002511186212263095  0.
0.005952622467681672 -0.0129494800396566  0.
0.007273715412053878 -0.010138559230256139  0.
0.008450547758016081 -0.007435411369191522  0.
0.009373119133549778 -0.004860739688806613  0.
0.009960195046028597 -0.0023956034511639656  0.
0.005950102919023067 -0.013389953297696005  0.
0.007296611601621783 -0.010517598869988579  0.
0.008492642120079559 -0.007742244224240399  0.
0.009427838920426488 -0.0050720142052844055  0.
0.010013732521359281 -0.002499229940425811  0.
0.006090864013677488 -0.01428626235649057  0.
0.0074446725640053306 -0.01130710571805831  0.
0.008648228350447243 -0.00834712383432093  0.
0.009573641699093806 -0.005477798937156458  0.
0.010156771784467155 -0.002698719500680199  0.
0.006314759718886257 -0.015499075576051074  0.
0.00769490083678542 -0.012293653356049148  0.
0.00891275388094051 -0.00911177864134293  0.
0.009854060449620674 -0.005997697609696032  0.
0.010431787240622702 -0.0029568927822003718  0.
0.0065932342423818706 -0.01696815856174243  0.
0.008024523809755161 -0.01346419019185405  0.
0.009277147954275216 -0.009984505238334473  0.
0.010224834702590611 -0.006571030761385351  0.
0.010810808163757771 -0.003243371458533647  0.
0.006917793671588633 -0.018662762817368218  0.
0.008435332538973111 -0.01474841024121081  0.
0.00973019345927816 -0.010891611069007965  0.
0.010701827872532411 -0.007157512972310524  0.
0.011310776869981658 -0.0035343733449158883  0.
0.00730707438673838 -0.020523396114954535  0.
0.008946603449576478 -0.016035351656243358  0.
0.010296856868861863 -0.011772169526517298  0.
0.01130593553217544 -0.007715551693974409  0.
0.011921351259721354 -0.003807678975999305  0.
0.013441422627751186 -0.00416153641501785  0.
0.014246006501053815 -0.004163140142548144  0.
0.012803438099862664 -0.008421601783459694  0.
0.013626821301070357 -0.008366059606340136  0.
0.01179040766955148 -0.012845325626763788  0.
0.012669694987882407 -0.012741496923901316  0.
0.010466695065817985 -0.01756190244942707  0.
0.011422409506547148 -0.017452041799084397  0.
0.008871503478488299 -0.02271188837418423  0.
0.009988279551916042 -0.022355890338525062  0.
0.006645478499617745 -0.0332370349241462  0.
0.004748592981905019 -0.03884202370758857  0.
0.0023902908022696372 -0.044600840685397915  0.
0.0053186610709763885 -0.03426698492517257  0.
0.0035422459338029463 -0.03982317466557418  0.
0.0016982953061753525 -0.045064592610613664  0.
-0.004235177397476323 -0.03035109865977416  0.
-0.0005554565169515819 -0.03847669767270757  0.
-0.001178886714974262 -0.036843301295529984  0.
-0.0022898576923894593 -0.03423782085901062  0.
-0.004142061942747454 -0.026955456664207577  0.
-0.003966225547541095 -0.02449238309318989  0.
-0.0037742276406105275 -0.022592135492640286  0.
-0.003611265392727808 -0.02096649001177177  0.
-0.003502116495147166 -0.019591618957848868  0.
-0.003482207976141437 -0.01860776603916681  0.
-0.003683666601231365 -0.017936585870581764  0.
-0.0042557986663453755 -0.018127068449251736  0.
-0.0007912999215625996 -0.04590089099785737  0.
-0.0017625654505592986 -0.04149393499951591  0.
-0.002890996477089629 -0.03652953397226587  0.
-0.008266139796676075 -0.028295178651113452  0.
-0.0070304720391530925 -0.0292047528039026  0.
-0.005740628346465683 -0.02980722672136062  0.
-0.012004998616042957 -0.004281852653346745  0.
-0.011276910336383308 -0.008661380698828124  0.
-0.010092382098720242 -0.013285827535502356  0.
-0.00850304195871278 -0.01821045361499349  0.
-0.006572289851317578 -0.023685042935263058  0.