<?xml version="1.0"?>
<VTKFile type="UnstructuredGrid" version="0.1" byte_order="LittleEndian" compressor="vtkZLibDataCompressor">
<UnstructuredGrid>
<Piece NumberOfPoints="759" NumberOfCells="694">
<PointData>
<DataArray type="Float64" Name="displacement" NumberOfComponents="3" format="ascii" >
-0.002200117477987601 0.027519475998384748  0.
0.0 0.05  0.
0.0 0.05  0.
0.015246450747222244 -5.3169569248055654e-05  0.
0.009014288341919497 -2.1839181964460764e-05  0.
-0.009034614673830328 3.7232906053475424e-06  0.
-0.015250317116453601 1.852247123992461e-05  0.
0.0 0.05  0.
0.0 -0.05  0.
-0.0022016192862041348 -0.02752765727106071  0.
0.0 -0.05  0.
0.0 -0.05  0.
0.008942229747504476 0.0033232088927070617  0.
0.008722452503531283 0.006632286089976313  0.
0.008363187040348224 0.009861313840842297  0.
0.007878809367154316 0.012949689960451276  0.
0.007287930704882087 0.015835914560518055  0.
0.006582210309601031 0.0185639410278911  0.
0.005794291756030056 0.02103829275078013  0.
0.004931152712577265 0.02323520494486059  0.
0.003998457922989001 0.02511799532648107  0.
0.003005439446619302 0.026635532615904588  0.
0.0019693942868917427 0.027734273811022538  0.
0.0009123040660089625 0.028375518044864375  0.
-0.00014462341817836116 0.02854346357148766  0.
-0.0011755289075125015 0.028258688283177024  0.
-0.0007149928427232169 0.027448751390325526  0.
-0.0003290658460994092 0.02781861109698949  0.
-0.0002178666608500828 0.02858773667210374  0.
-0.00021527198633617106 0.02971694181276835  0.
-0.0002495044662156821 0.031098831359206224  0.
-0.00028377797247426434 0.03278926820329454  0.
-0.00029653131113885453 0.03480610437117685  0.
-0.0002791462762812533 0.03703477995804712  0.
-0.00022528105909538776 0.03950461091191357  0.
-0.00014655743135116194 0.04206765135898259  0.
-6.204026520162036e-05 0.04468626395819472  0.
-6.662757683932784e-08 0.047348657080782786  0.
0.0 0.05  0.
0.0 0.05  0.
0.0 0.05  0.
0.0 0.05  0.
0.0 0.05  0.
0.0 0.05  0.
0.0 0.05  0.
0.0 0.05  0.
0.0 0.05  0.
0.0 0.05  0.
0.0 0.05  0.
0.0037769664575415195 0.04295640358138933  0.
0.006062970626994387 0.03722865431380453  0.
0.007961664557425854 0.031832233456824274  0.
0.009579144288375448 0.026677627420843605  0.
0.011119666002457665 0.02144490967064664  0.
0.012460921490371103 0.016619985860497764  0.
0.013602905745423055 0.0121164500145471  0.
0.014490221046830598 0.007885563101995226  0.
0.015054635776720865 0.0038644552528324873  0.
0.014471002676647818 -3.721713155021494e-05  0.
0.013654719120584673 -1.851006832656767e-05  0.
0.012855776777671874 1.881172304860873e-06  0.
0.012144040953389288 2.006872528052962e-05  0.
0.011514703502024309 2.804604263926565e-05  0.
0.011011562305956757 3.202240849459274e-05  0.
0.010624380830115686 3.11294974346535e-05  0.
0.010354771360125603 2.8071963414305702e-05  0.
0.010211757090599693 1.9376518333234382e-05  0.
0.010159521939462039 1.287864834049921e-05  0.
0.010051786955873228 3.4846815782081504e-07  0.
0.0 0.05  0.
0.0 0.05  0.
0.0 0.05  0.
0.0 0.05  0.
0.0 0.05  0.
0.0 0.05  0.
0.0 0.05  0.
-0.003217878727723119 0.026347868030807325  0.
-0.004208911915167081 0.024740931204370417  0.
-0.0051789897293356086 0.02269226785733253  0.
-0.006093884426065396 0.02021295091269899  0.
-0.006942246170474131 0.017338870038269692  0.
-0.007669088451125494 0.014190223602650154  0.
-0.008261916884402464 0.010797314067890784  0.
-0.008687399034856842 0.007251847363574029  0.
-0.008946289958503377 0.003654095374955157  0.
-0.010030703694629764 -5.933749543424279e-06  0.
-0.01015969739447089 -9.275361349430506e-06  0.
-0.01019857462993015 -1.515557878228185e-05  0.
-0.01029625393123105 -2.91906824230346e-05  0.
-0.010466355660650776 -3.137024044831837e-05  0.
-0.010748356938058997 -3.931703134466908e-05  0.
-0.011149098322006216 -4.411273731248116e-05  0.
-0.011646963561198776 -3.945593131260339e-05  0.
-0.012245934433118822 -2.8648923127890366e-05  0.
-0.012937288896988785 -1.4949499229099023e-05  0.
-0.013696846313588093 -2.7156144866626353e-06  0.
-0.014488186064852897 8.50865946522228e-06  0.
-0.015037695699019124 0.004088523580392352  0.
-0.014428974932151596 0.008253432099343505  0.
-0.013495332201919725 0.012594835562581185  0.
-0.012321351847846935 0.017159927222502317  0.
-0.010977537218171539 0.021956902570619746  0.
-0.009497348583125434 0.02696116821952388  0.
-0.007876179620493069 0.03210329282230103  0.
-0.006005207772890186 0.0373873446536513  0.
-0.003743748274607286 0.04302615907213885  0.
0.0 -0.05  0.
0.0 -0.05  0.
0.0 -0.05  0.
0.0 -0.05  0.
0.0 -0.05  0.
0.0 -0.05  0.
0.0 -0.05  0.
0.0 -0.05  0.
0.0 -0.05  0.
0.0 -0.05  0.
0.0 -0.05  0.
8.912598093074296e-07 -0.047379516983246946  0.
-5.99218984810726e-05 -0.04471369182908715  0.
-0.00014477265039974574 -0.04206740757441737  0.
-0.000220527518199211 -0.03955658782062081  0.
-0.00027211289978925274 -0.03711302760759496  0.
-0.0002915676855839419 -0.03483155278126866  0.
-0.00027775450655257545 -0.03285805327633339  0.
-0.00024392398602599182 -0.031228327551739488  0.
-0.00021278118592083585 -0.029769941136157014  0.
-0.00021526149954207438 -0.02858971296456727  0.
-0.00033128050934886407 -0.027810699623536068  0.
-0.0007315195664003392 -0.027449504937822482  0.
-0.0011808569269158937 -0.028257621115515226  0.
-0.00013582700145257413 -0.02854974771395049  0.
0.0009149083334280259 -0.02837673540717185  0.
0.001964215751903904 -0.02774001699339479  0.
0.002990373654407313 -0.026656729367785143  0.
0.003978677128586382 -0.025155915767067882  0.
0.004913324758228343 -0.023281780203699833  0.
0.0057822397651147 -0.021080415520795103  0.
0.006564470977272625 -0.01861179639547156  0.
0.007257711007149233 -0.01592788592767374  0.
0.007863131893156154 -0.012993276194046378  0.
0.008354665415844564 -0.009886399149404174  0.
0.008716196303854524 -0.006659577576738528  0.
0.00893819622474589 -0.0033605671056994085  0.
0.015040481896645789 -0.004004921793119798  0.
0.014472311875815725 -0.007981922777419744  0.
0.013596205241626776 -0.012145718926254104  0.
0.012462145865354804 -0.0166169629301527  0.
0.011151084599121387 -0.02133789005010432  0.
0.009663650247250032 -0.026399397438404346  0.
0.008009236406491206 -0.03168883274960885  0.
0.006094741612707888 -0.03714337922034947  0.
0.0038043084628066747 -0.0428934867755113  0.
-0.008948603438319432 -0.003668877209967266  0.
-0.008686527309802215 -0.007302273977892139  0.
-0.008255446827764563 -0.010846825307489812  0.
-0.007664804083637993 -0.01423304099345398  0.
-0.00692124262541614 -0.017429032403894852  0.
-0.006080191142661956 -0.020252992280480987  0.
-0.005161107316113451 -0.02270672457663227  0.
-0.004196158265525044 -0.024746381056641925  0.
-0.003206580132732921 -0.02635647154680703  0.
0.0 -0.05  0.
0.0 -0.05  0.
0.0 -0.05  0.
0.0 -0.05  0.
0.0 -0.05  0.
0.0 -0.05  0.
0.0 -0.05  0.
-0.003730730418868483 -0.04305610947702654  0.
-0.005989398142219699 -0.0374279973313286  0.
-0.007859079490917704 -0.032152508947286496  0.
-0.00947733224412542 -0.02702405350554282  0.
-0.010956717259540663 -0.02202583985333111  0.
-0.01230729379441132 -0.017208994357238144  0.
-0.0134907676435713 -0.012612095995931128  0.
-0.014431435631144988 -0.008240813196963891  0.
-0.015041676217136877 -0.004056644362599605  0.
0.005561692008418433 0.028746378194034878  0.
-6.69955924889092e-05 0.04014405405325892  0.
5.358003469098338e-06 0.040341082675117095  0.
8.641965555555671e-05 0.040030914501666036  0.
0.00026878986379661146 0.03924358733882859  0.
0.000631273772772543 0.038091109074731046  0.
0.0012370386688890529 0.036593024713691136  0.
0.002150611696441193 0.03471230343088817  0.
0.0034861317967124017 0.03227555540735276  0.
0.005504921174486367 0.02508381486135074  0.
0.0053417588280840105 0.02243384505859951  0.
0.005138874134037785 0.020317601350574265  0.
0.004923949120094069 0.018588922504293316  0.
0.004726473489745438 0.017216977606877133  0.
0.00459497331166492 0.01623992615477025  0.
0.0046250415976691675 0.0157802930291425  0.
0.0050232337576064465 0.01612858340899723  0.
0.0011998306029243225 0.045458521857395774  0.
0.0025631592701546133 0.04059473648787658  0.
0.003999473022253454 0.035222471690858875  0.
0.0083355489288453 0.02781657851304447  0.
0.007041586836183272 0.02847786695374545  0.
0.012646673493986883 0.00403591027479991  0.
0.01202991886339101 0.008175806923421307  0.
0.011005145860169306 0.012525060621841826  0.
0.009615999455096752 0.017148181493962005  0.
0.007856675416179154 0.02232102133051958  0.
0.003852849408049868 0.018914967621883785  0.
0.0028039579835563142 0.021587219935599814  0.
0.0019178931184990289 0.02403402518470883  0.
0.001207908833725714 0.026116265306847745  0.
0.0006679684238413996 0.02768956844753776  0.
0.0002684213212193833 0.02864267220749672  0.
-4.3730419646959214e-05 0.02891553680489373  0.
-0.00033812658349929734 0.028507992985712563  0.
0.003371864793059457 0.01860454315417948  0.
0.002267200129909299 0.02135933459842787  0.
0.0013723233680109533 0.023925739317000316  0.
0.0007210045217480828 0.026155983472764634  0.
0.00031095230591941694 0.027881399247596365  0.
9.509093439550058e-05 0.028961318349854496  0.
-1.002965308567072e-05 0.029306717135192863  0.
-0.00011193511851710061 0.028918999748998187  0.
0.0033103675531032267 0.019087804798651124  0.
0.0021743575501751863 0.021858126298396837  0.
0.0012617027782051032 0.02444879910690504  0.
0.0006080695264048571 0.02671560825802296  0.
0.0002212484073645881 0.028498420399187707  0.
4.990227432309054e-05 0.029645730748671658  0.
-3.0758203612991207e-06 0.030075201326127853  0.
-5.524443602978881e-05 0.029693230561646276  0.
0.003416387390147461 0.02011505102863398  0.
0.002256186495020456 0.022897594555896888  0.
0.0013149052310707679 0.0254801923871273  0.
0.0006396730030753173 0.027738463223457605  0.
0.00023842362295776686 0.029529300132185608  0.
5.800112242482174e-05 0.030704200052169332  0.
-1.5466912869189847e-06 0.03121414831509617  0.
-5.4166793767983196e-05 0.030823741822184204  0.
0.0035755610261569604 0.02157688284996226  0.
0.0023800891778205705 0.024383638242471615  0.
0.0014206729997222236 0.026938059364286195  0.
0.0007201779486152394 0.029157597088223363  0.
0.00029079406460344405 0.030923316994979508  0.
8.642771455395799e-05 0.0320967119332564  0.
3.0599765301497894e-06 0.03250133307691042  0.
-7.095748266398691e-05 0.0321398595944219  0.
0.003723818919602621 0.023442768327076664  0.
0.002482412841958228 0.026280287123971256  0.
0.0014977283262388383 0.028792398724581173  0.
0.0007776553049274609 0.030940066226294888  0.
0.00033507807233575007 0.032633025263760516  0.
0.00010890352354572345 0.03371399505146047  0.
5.548231061168719e-06 0.03408733435771736  0.
-8.68573708942769e-05 0.03375616265266983  0.
0.003812837703386053 0.025748989842227902  0.
0.0025127815692622645 0.028599409719738966  0.
0.0015114064731849067 0.03102240996861141  0.
0.0007925445022764334 0.033041314442866086  0.
0.00035005497461361115 0.03461445487997673  0.
0.00011934411652586972 0.03564311361755486  0.
7.335266671164108e-06 0.03594318637622115  0.
-9.437895880441928e-05 0.03568158988026289  0.
0.0037745498807635063 0.028612986663236955  0.
0.0024189384049245126 0.03138978249299911  0.
0.0014251756279039793 0.03362825034539627  0.
0.0007434227606617638 0.03543591452380556  0.
0.0003275731820537326 0.03682919888837472  0.
0.00011134949712029121 0.03773401469225207  0.
7.204324530724099e-06 0.03804332948369  0.
-8.833845336705872e-05 0.037789175194296636  0.
-3.6507774274183615e-05 0.04254423194178942  0.
-5.233539410629719e-06 0.044992596184853496  0.
1.362387113001745e-05 0.04749546747400434  0.
2.207635640835478e-06 0.042685236702640635  0.
-3.80949563571297e-07 0.0450638407395765  0.
-1.3037087895970019e-06 0.04750875014840913  0.
4.8262671537591085e-05 0.04240203779126218  0.
9.438529687180427e-06 0.04487789486245626  0.
-1.4109572780607005e-05 0.04741933980714313  0.
0.00017789815657509147 0.04181334368947569  0.
7.913644871816183e-05 0.04449446452201868  0.
5.245423431604282e-06 0.04723581090551489  0.
0.0004550295330484815 0.040952728224363175  0.
0.00025516345793295857 0.04393708456699749  0.
8.22363297991574e-05 0.046969980078449755  0.
0.000931105165249473 0.039844941107209625  0.
0.0005726553100299427 0.04323000035178286  0.
0.0002362099161870359 0.04663524290928909  0.
0.0016512182673399276 0.03849824809296729  0.
0.0010557209122562142 0.042399629649584394  0.
0.000473870261167398 0.046251314030652704  0.
0.0026648991360393236 0.03691535880145258  0.
0.00172027699899076 0.04148608573229888  0.
0.000797403991170298 0.045842642957834315  0.
0.0016852092904938206 0.04510121056279439  0.
0.0023681850281652766 0.04464799563446091  0.
0.003521577228542018 0.03987783289337663  0.
0.004720235076120485 0.038907995269488155  0.
0.005301585340057019 0.03431147699973938  0.
0.006623477691121839 0.03329246457839868  0.
0.0099768174823992 0.02240699529130338  0.
0.011432066506716769 0.017433490953330254  0.
0.012677299060819892 0.012761893011601893  0.
0.013647857209123034 0.008306675893405245  0.
0.014259664006593634 0.004076347925173602  0.
0.008871522030812361 0.0227429321531424  0.
0.010478844478063624 0.01755467729161565  0.
0.01180940060173365 0.012813486230806276  0.
0.012821177781973605 0.008366349710973072  0.
0.013451341290037463 0.004119880249944582  0.
0.011931801132542646 0.0038548105299232764  0.
0.011313490998501543 0.003594501116609052  0.
0.010806507943220814 0.003307701478340037  0.
0.010413223751544147 0.003014218276499899  0.
0.010151624811569808 0.0027543120525034223  0.
0.010006373698595654 0.0025392779502912423  0.
0.009955095680272889 0.0024274027658825843  0.
0.009863130759928753 0.0025215605858801785  0.
0.011338337493164756 0.007794226686392195  0.
0.010702668082474737 0.0072239782604610215  0.
0.010210043645347805 0.006633399521607065  0.
0.009821889808252094 0.006045472975523772  0.
0.009564634989118874 0.005533980709585739  0.
0.009409972992812118 0.005114198984867561  0.
0.009361684813017043 0.0048991336668379295  0.
0.009326681512309748 0.005093645040868907  0.
0.010319713828393876 0.011866157444574683  0.
0.009729843511185268 0.010955083045763937  0.
0.009265599381564023 0.010044403045340052  0.
0.008894329760336987 0.00915199680365899  0.
0.008627965021072909 0.008368197584642861  0.
0.008474873515893343 0.007765594718827524  0.
0.008439433989281797 0.0074662904707178  0.
0.008492608002536966 0.007742877543738322  0.
0.008956333306329048 0.016062740036374912  0.
0.00843560862751423 0.014750804028433536  0.
0.008025840517796812 0.013479135071971684  0.
0.007690845415325183 0.012286676865528198  0.
0.007439380454064558 0.011272554589378814  0.
0.007288953135269308 0.010512266638248995  0.
0.007273333926253631 0.010143067486391913  0.
0.007438427850003324 0.010479001736177895  0.
0.007323097117145213 0.020528314174820917  0.
0.006934477236824554 0.018641546986675025  0.
0.006608099863184067 0.016926743218954054  0.
0.00632680323571766 0.01544440023068568  0.
0.006100037797317393 0.014228954658004072  0.
0.005959419176737273 0.013341456327523293  0.
0.005969882922748911 0.012917853145840333  0.
0.006259013270767513 0.013280532326118623  0.
-0.004241401551920084 0.030308036104440675  0.
-0.0005656396376704178 0.03839966391900928  0.
-0.0011812899881843732 0.036887998571503954  0.
-0.002299530074308909 0.03419108589003309  0.
-0.0029013913274423685 0.036501131724595105  0.
-0.001775300815365868 0.04146447523568004  0.
-0.0007990299035502003 0.0458830522272633  0.
-0.00426125820119461 0.018086098461481553  0.
-0.00367011650303051 0.017969383787272517  0.
-0.003479041754697804 0.018604935969793842  0.
-0.003509484598537117 0.019548974634011125  0.
-0.003622912170519998 0.020878626931905377  0.
-0.0037702411385737294 0.02264340420094341  0.
-0.003939596645255869 0.024701338550686812  0.
-0.004131845795855569 0.027005348789607794  0.
-0.011998837212016411 0.0042218208795149256  0.
-0.011258842599462747 0.00859047004097993  0.
-0.010082967396863405 0.013196433767411312  0.
-0.008501558285648239 0.0181585428485703  0.
-0.006573186698046494 0.023641090432935375  0.
-0.008282483388116125 0.028239146341640695  0.
-0.007042333020088864 0.029157277937624616  0.
-0.0057489819862142424 0.029765105712947933  0.
-0.000463040772920193 0.046317220439960664  0.
-0.00021860517853581124 0.04677374571785226  0.
-6.935557826516186e-05 0.0471261836303026  0.
-0.0010579419527384129 0.042472802621114865  0.
-0.0005345788975995372 0.043473899910116784  0.
-0.00022242452617970054 0.044192448974279326  0.
-0.0017051090900819567 0.038397717790415356  0.
-0.0008685731354846212 0.04024297487108429  0.
-0.00040314978897518217 0.0412804517746658  0.
-0.0006711962293398742 0.03567805466495939  0.
-0.0007094644616058933 0.03321719575413097  0.
-0.0006890278300474661 0.03110735303469819  0.
-0.0006364064988571455 0.029345883688690278  0.
-0.0005858246661364385 0.027958709254956925  0.
-0.0005914944408789237 0.026834843148843306  0.
-0.0007384634850262081 0.026077055573691593  0.
-0.00128274249382139 0.025795527050504422  0.
-0.0013742304198852528 0.033665635222399515  0.
-0.0014250793801618717 0.0309905177638875  0.
-0.0013892443256170528 0.028784910540620226  0.
-0.001314119772129262 0.026980970664790133  0.
-0.0012460811578830304 0.02557500460839823  0.
-0.0012503971784636977 0.02448824000725419  0.
-0.0014276880220293396 0.023755524943086782  0.
-0.002057145387466586 0.023612403008654474  0.
-0.002489767974791803 0.030877763268190837  0.
-0.0025065938959617554 0.028143952359671237  0.
-0.0024237959003045313 0.025941201593109774  0.
-0.002318592722569623 0.02411455377196361  0.
-0.002230336266765807 0.022717843054425507  0.
-0.0022140395835676158 0.021727605201841093  0.
-0.002418376643018891 0.02100292075694397  0.
-0.003065827731801765 0.021025784359535813  0.
-0.005599733069079118 0.015010022631626685  0.
-0.0069520016430249165 0.01186450471772782  0.
-0.00819186104879061 0.008731744607967435  0.
-0.009189447044089465 0.0056658252095343874  0.
-0.009814148509612592 0.0028093649803474976  0.
-0.005123379732291259 0.014769560536433884  0.
-0.0066422055772422965 0.011552036857806654  0.
-0.008058607437159407 0.008422641642712581  0.
-0.00919232320686572 0.005471751582154764  0.
-0.009911809820102434 0.002689052320621394  0.
-0.00496895392093779 0.015294974036106256  0.
-0.006531544797907012 0.011994508843188588  0.
-0.008016449461581636 0.008726969217268437  0.
-0.00919193357827535 0.005668869124107297  0.
-0.009944743583276378 0.0027803464563864464  0.
-0.0050036334777539175 0.01619424701687552  0.
-0.006576715755721235 0.01280552590585747  0.
-0.00808539626175317 0.009339199273016432  0.
-0.009275793679479474 0.006069903651628155  0.
-0.01003496846630434 0.002972370065377976  0.
-0.005147634993846969 0.01737297835342064  0.
-0.006746592145985882 0.013789348996510485  0.
-0.008269383794755262 0.0100881643985693  0.
-0.009456926941700635 0.006569997758156314  0.
-0.010210899185421759 0.0032209527511310484  0.
-0.005344772406326369 0.018920483052033678  0.
-0.00701412349608026 0.014901780652874778  0.
-0.00854227764754616 0.010905235224332102  0.
-0.009735170989637928 0.007111643503108398  0.
-0.01048886284500292 0.003488956304738225  0.
-0.00563910632408563 0.0204612595119677  0.
-0.007382588984081548 0.016042413094275603  0.
-0.00894070614645445 0.011752264532404124  0.
-0.010134390555945418 0.007664991731578062  0.
-0.0108907915246389 0.0037606947540582284  0.
-0.006030122991519024 0.022055142971006355  0.
-0.007863972473306237 0.017176546440880056  0.
-0.009455545405146914 0.012562938420097158  0.
-0.010648101261100542 0.008181727172364333  0.
-0.011390608118231175 0.004015600305139042  0.
-0.012696957907836443 0.004351644021183366  0.
-0.013464595867465054 0.00438153966467763  0.
-0.01426448289211336 0.00430012206009417  0.
-0.011996464600748774 0.008841737063562801  0.
-0.012788300499978275 0.008881102626532624  0.
-0.01360698689876301 0.008677885550889053  0.
-0.010853893181778058 0.013550568284037369  0.
-0.011703828280274598 0.013545081540590411  0.
-0.012597412622492284 0.013222449268776207  0.
-0.009364030605958883 0.0185367593397375  0.
-0.010328092781582568 0.01845825164048987  0.
-0.011325664371931585 0.017985485354632586  0.
-0.00762756285633256 0.023923164422812192  0.
-0.008748229657084274 0.0236606437030906  0.
-0.009871810621204602 0.02298763204199731  0.
-0.006587112095736805 0.0335940729034973  0.
-0.004699213318653936 0.039068942569711156  0.
-0.002357664487483649 0.044713514352534865  0.
-0.005322661536784072 0.03466163110023514  0.
-0.0035269864081758267 0.04004614014987345  0.
-0.0016812627215208962 0.045169530240659304  0.
-0.0041016118531548885 0.03548936342926957  0.
-0.0025965527807159552 0.040707011877025544  0.
-0.0012020685913572318 0.045511077419613605  0.
0.0055566937712635675 -0.028749100214988946  0.
-6.52464992792351e-05 -0.040162566957822964  0.
6.466485350676723e-06 -0.04038690204496859  0.
8.745263533052153e-05 -0.04012773208692096  0.
0.0002698968794845725 -0.03931979427650923  0.
0.0006309692886496647 -0.038162843276416836  0.
0.0012336757776780613 -0.03666288826875116  0.
0.0021441268950091346 -0.03477339167506979  0.
0.003478853064459381 -0.032313974543634626  0.
0.004006128820086941 -0.03521540743608687  0.
0.0025720460335489055 -0.040574524662457784  0.
0.0012038687523868157 -0.045443710868214485  0.
0.004993650241747262 -0.0161565111026795  0.
0.004602988015178499 -0.015827838756341663  0.
0.004571343856424767 -0.016307628493577378  0.
0.004698909311666483 -0.017297537625578445  0.
0.004894068343886371 -0.018670697281360966  0.
0.005109742543310513 -0.020389104238514748  0.
0.005315440213017039 -0.02248434447547374  0.
0.0054857068236782046 -0.025106186610671155  0.
0.012640672890238774 -0.0040310985669582845  0.
0.012013867057684365 -0.00816646758108815  0.
0.010993147995754482 -0.012512528420255702  0.
0.009603908801282134 -0.017135117975193147  0.
0.007847396512803627 -0.02231143736267946  0.
0.008359626435721749 -0.02773181885071575  0.
0.007049716238142514 -0.02844053652427841  0.
0.0007975671372996519 -0.045847295643749224  0.
0.0004725170970051949 -0.046262188884563626  0.
0.00023452149097695596 -0.04665161407124826  0.
8.122090449489813e-05 -0.04699393118808056  0.
4.546777856451279e-06 -0.04727393236982899  0.
-1.4294682141871423e-05 -0.04748259188483053  0.
-1.0756315484079281e-06 -0.04761398936703246  0.
1.3901086546364115e-05 -0.047554533299855165  0.
0.001723155740412187 -0.04149545672118654  0.
0.001054610389669099 -0.042420301573346295  0.
0.0005698205641097147 -0.04326162419524324  0.
0.0002521215150936604 -0.04398266722852516  0.
7.663103869873704e-05 -0.04456337236381531  0.
7.802589982582356e-06 -0.04499029098752466  0.
-2.1413715412285976e-07 -0.04515483377455092  0.
-4.240776461346628e-06 -0.04504550990650802  0.
0.0026646942231454396 -0.03693367152597975  0.
0.001646163068426887 -0.03853268832187811  0.
0.0009250181190436355 -0.039893839666746325  0.
0.0004501525614326553 -0.041015428945992284  0.
0.00017478450940249118 -0.041896726004022666  0.
4.6706590897955596e-05 -0.04252543046265103  0.
2.5593664360455685e-06 -0.042699852644910295  0.
-3.572583697318647e-05 -0.04255611707234497  0.
-8.400350633064208e-05 -0.03790870318565494  0.
-9.045396497984616e-05 -0.03575776556745101  0.
-8.422573360072352e-05 -0.03384813467374377  0.
-6.909849865687924e-05 -0.03227737963864446  0.
-5.335897916403357e-05 -0.030815118810116213  0.
-5.4147516480262734e-05 -0.029669137196721627  0.
-0.00011719637081853738 -0.028892957180080437  0.
-0.00034857115410489133 -0.02849639061983111  0.
9.676191864610728e-06 -0.03817124165378991  0.
1.074838310033219e-05 -0.03606646457567047  0.
9.03360344282237e-06 -0.03417231352870124  0.
4.054876961041557e-06 -0.03260882039967332  0.
6.298078979468164e-07 -0.031168080185330443  0.
-2.959427558656009e-06 -0.03003090094365847  0.
-8.659404143478128e-06 -0.029287089898163365  0.
-3.93641116161653e-05 -0.02890834662432176  0.
0.00011564808818099479 -0.0378316438389707  0.
0.00012492481712859422 -0.03569594035265304  0.
0.00011535818327942879 -0.03377306196792196  0.
8.844523412383406e-05 -0.032095769211522886  0.
6.159418440551312e-05 -0.030717331251013665  0.
5.1045383658174406e-05 -0.029631334002744335  0.
9.758630933154998e-05 -0.02895061893281099  0.
0.0002769136639799548 -0.02863695128274062  0.
0.0003339496272544576 -0.036887126018888744  0.
0.0003575180669759073 -0.03465160232080642  0.
0.00034507468008546533 -0.03267706414007554  0.
0.00029644784989106153 -0.030949688719590362  0.
0.00024188528773878783 -0.02955991443806311  0.
0.0002194923975796366 -0.028518825296963275  0.
0.00030806569600496856 -0.027898945175571843  0.
0.0006707544080665368 -0.027694878823492114  0.
0.0007494921490526164 -0.035508942033031385  0.
0.0007978046522827799 -0.033113566887857264  0.
0.0007843155270713958 -0.031018845383876947  0.
0.0007267143943744546 -0.02924144212589682  0.
0.0006410578540655366 -0.027810907403187077  0.
0.0005960417222356819 -0.02678077215636035  0.
0.0007060873182663904 -0.026212335025583195  0.
0.0011994840746077924 -0.026145549896631388  0.
0.0014326729251981614 -0.03372064312768841  0.
0.0015129018938733571 -0.0311347593488879  0.
0.0015027547477806616 -0.028915999826226998  0.
0.0014132867962799954 -0.027059582983501675  0.
0.0013003828124980574 -0.025594656360206563  0.
0.0012315441787773558 -0.02455590602894041  0.
0.0013421465070922853 -0.024019926914856625  0.
0.0019008819817608272 -0.02409074563252866  0.
0.0024255282875699203 -0.03149299786748056  0.
0.0025122871734873345 -0.02872319191678982  0.
0.002470773043739708 -0.02641118771345335  0.
0.0023552300359319595 -0.024517049151276622  0.
0.0022180320939549536 -0.023030876618062877  0.
0.0021316657437952316 -0.021984052376668825  0.
0.0022285075535205725 -0.021465709145507925  0.
0.002787903707581353 -0.0216542266595717  0.
0.0037619185632525973 -0.028681576625784983  0.
0.0037899147504323804 -0.025839106714174644  0.
0.0036914490284298334 -0.023546725279892745  0.
0.003535209904704053 -0.021687200779070385  0.
0.003372264000507542 -0.02022471080160339  0.
0.003268159591202682 -0.01918772680957215  0.
0.0033407032655040614 -0.018683368517338504  0.
0.0038431981562904263 -0.018961187041478235  0.
0.00622839160640134 -0.013292646620439422  0.
0.00742377881378336 -0.010464842091571927  0.
0.008491088476817307 -0.007713050822160988  0.
0.009331446342212084 -0.0050647112854184705  0.
0.009867189195561076 -0.0025111862122630976  0.
0.005952622467681586 -0.012949480039656612  0.
0.007273715412053792 -0.010138559230256144  0.
0.008450547758015995 -0.007435411369191526  0.
0.009373119133549683 -0.004860739688806613  0.
0.009960195046028499 -0.002395603451163964  0.
0.005950102919022979 -0.013389953297696012  0.
0.007296611601621694 -0.010517598869988579  0.
0.008492642120079469 -0.007742244224240393  0.
0.009427838920426389 -0.005072014205284398  0.
0.010013732521359182 -0.0024992299404258023  0.
0.006090864013677399 -0.01428626235649056  0.
0.007444672564005239 -0.011307105718058298  0.
0.008648228350447148 -0.008347123834320909  0.
0.009573641699093713 -0.005477798937156441  0.
0.01015677178446705 -0.0026987195006801805  0.
0.006314759718886179 -0.015499075576051067  0.
0.007694900836785334 -0.012293653356049134  0.
0.008912753880940419 -0.009111778641342917  0.
0.009854060449620578 -0.005997697609696014  0.
0.010431787240622587 -0.002956892782200359  0.
0.006593234242381806 -0.016968158561742438  0.
0.008024523809755095 -0.013464190191854053  0.
0.009277147954275132 -0.009984505238334468  0.
0.010224834702590514 -0.0065710307613853465  0.
0.010810808163757657 -0.003243371458533642  0.
0.0069177936715885775 -0.018662762817368228  0.
0.00843533253897305 -0.01474841024121081  0.
0.009730193459278082 -0.010891611069007974  0.
0.010701827872532321 -0.007157512972310528  0.
0.01131077686998155 -0.0035343733449158875  0.
0.007307074386738333 -0.02052339611495455  0.
0.008946603449576419 -0.01603535165624337  0.
0.010296856868861788 -0.011772169526517304  0.
0.011305935532175343 -0.0077155516939744154  0.
0.011921351259721248 -0.0038076789759993075  0.
0.013441422627751064 -0.0041615364150178686  0.
0.014246006501053695 -0.004163140142548166  0.
0.012803438099862561 -0.0084216017834597  0.
0.013626821301070256 -0.008366059606340156  0.
0.011790407669551412 -0.012845325626763797  0.
0.012669694987882337 -0.01274149692390133  0.
0.010466695065817929 -0.017561902449427062  0.
0.011422409506547104 -0.01745204179908441  0.
0.008871503478488267 -0.022711888374184242  0.
0.009988279551916012 -0.02235589033852508  0.
0.006645478499617712 -0.03323703492414622  0.
0.004748592981904993 -0.0388420237075886  0.
0.002390290802269624 -0.04460084068539797  0.
0.005318661070976349 -0.034266984925172626  0.
0.0035422459338029138 -0.039823174665574244  0.
0.001698295306175341 -0.04506459261061372  0.
-0.004235177397476322 -0.030351098659774166  0.
-0.0005554565169515879 -0.038476697672707526  0.
-0.0011788867149742654 -0.03684330129552998  0.
-0.00228985769238946 -0.03423782085901063  0.
-0.004142061942747455 -0.026955456664207594  0.
-0.003966225547541103 -0.024492383093189893  0.
-0.0037742276406105436 -0.022592135492640306  0.
-0.003611265392727829 -0.020966490011771782  0.
-0.0035021164951472027 -0.019591618957848885  0.
-0.003482207976141482 -0.018607766039166824  0.
-0.003683666601231422 -0.017936585870581785  0.
-0.00425579866634544 -0.018127068449251764  0.
-0.0007912999215626078 -0.04590089099785739  0.
-0.0017625654505593073 -0.041493934999515925  0.
-0.0028909964770896354 -0.03652953397226588  0.
-0.008266139796676088 -0.02829517865111345  0.
-0.0070304720391531055 -0.029204752803902594  0.
-0.005740628346465692 -0.02980722672136062  0.
-0.01200499861604303 -0.004281852653346717  0.
-0.011276910336383351 -0.008661380698828103  0.
-0.010092382098720248 -0.013285827535502344  0.
-0.008503041958712787 -0.018210453614993488  0.
-0.006572289851317582 -0.023685042935263037  0.