<?xml version="1.0"?>
<VTKFile type="UnstructuredGrid" version="0.1" byte_order="LittleEndian" compressor="vtkZLibDataCompressor">
<UnstructuredGrid>
<Piece NumberOfPoints="240" NumberOfCells="209">
<PointData>
<DataArray type="Float64" Name="displacement" NumberOfComponents="3" format="ascii" >
0.0 0.0  0.
0.0 0.0  0.
0.0 0.0  0.
0.0 0.0  0.
0.0 0.0  0.
0.0 0.0  0.
0.0 0.0  0.
0.0 0.0  0.
0.0 0.0  0.
0.0 0.0  0.
0.0 0.0  0.
0.0 0.0  0.
-0.33782844900600284 0.27625865331732563  0.
-0.10853004594856952 0.053499663922396024  0.
-0.05131566693267953 0.016755368034163047  0.
-0.00866523944963662 0.02800837970616316  0.
0.020157077943883342 0.05513580585912491  0.
0.04018524444993689 0.08898127472144358  0.
0.052147159515220386 0.12336694280015147  0.
0.05675115802433255 0.15382920575062306  0.
0.05474936935688865 0.17637229969072857  0.
0.04744173593921398 0.18748461999221333  0.
0.037345622897129345 0.18494038025380893  0.
0.02611092299167141 0.16650153581493976  0.
-0.6710932082591067 0.4227947747492749  0.
-0.30298669893675506 0.22727696155685395  0.
-0.12977413185760175 0.13111551152059497  0.
-0.031638712636607044 0.12345383950861574  0.
0.035976931362303496 0.15396801288683137  0.
0.08182676694134222 0.2013747101187738  0.
0.11012237218089616 0.25387963452549184  0.
0.12254442560471289 0.3030672208048247  0.
0.12051367153711748 0.34209835144846806  0.
0.10611363762266361 0.3651978919942086  0.
0.0831114862294351 0.36820212342480213  0.
0.05747085755367849 0.35081980973182453  0.
-0.9820749785517485 0.5926160444280751  0.
-0.5299013455908225 0.4213493813931083  0.
-0.2544661328438287 0.31605568834348663  0.
-0.08146614127270747 0.2840221288069054  0.
0.03491636994067995 0.3030096247852765  0.
0.11477696907217659 0.34877250964935347  0.
0.16572710282028916 0.405681567700535  0.
0.1914739221439224 0.46252444922577884  0.
0.19426381936553205 0.5103758485015776  0.
0.1766398982107491 0.5417980258105491  0.
0.14295410663690492 0.551159653757693  0.
0.10105887414574617 0.5363612782180611  0.
-1.2829552565759073 0.7890792064066617  0.
-0.7733769090049494 0.642344944661844  0.
-0.4146724893095161 0.5418149535561253  0.
-0.16648450219429983 0.4984422372187805  0.
0.007455155849616805 0.5025847401235684  0.
0.12918557667731848 0.5380169296046067  0.
0.21014967646101282 0.5894387576856001  0.
0.2560629960634713 0.6446408435278136  0.
0.270274805905022 0.6935888430030616  0.
0.2556819338022737 0.7277777438992484  0.
0.2165106963702279 0.74023019950261  0.
0.16038418781182928 0.7264579017393086  0.
-1.5806203485719388 1.0163681834810037  0.
-1.0281739241252228 0.891629868005489  0.
-0.6029365359858284 0.8023255732843989  0.
-0.28597846874106114 0.7559482616619848  0.
-0.052411806391192334 0.7491201130055999  0.
0.11708965389252785 0.7718414525262405  0.
0.23485117182171775 0.8123303355934559  0.
0.3080979140278778 0.8593695368717547  0.
0.34113401651345215 0.9029874152851622  0.
0.33716032162429094 0.9343247830032212  0.
0.29991422874201157 0.9455674946144063  0.
0.2356194016628964 0.9303079367163616  0.
-1.8801386325843248 1.2766548968063396  0.
-1.293108309272992 1.171975057202501  0.
-0.8146638596273832 1.0961791672968013  0.
-0.43771287582147017 1.0523146268521848  0.
-0.14680386407519916 1.0390633212860558  0.
0.07288535206345187 1.0506136674287436  0.
0.23249248815400456 1.0786646369872332  0.
0.339475972914196 1.1141612490473949  0.
0.3986401700720894 1.148195326653242  0.
0.41333300097037834 1.1723170031626604  0.
0.3867126704893288 1.1785639102504486  0.
0.32327523918639617 1.1595242286385332  0.
-2.1851862798359165 1.572249991962994  0.
-1.5688331781338347 1.4863462267908585  0.
-1.0475051956473438 1.4246758984519405  0.
-0.6195860847219445 1.3865803011138418  0.
-0.2761464631306982 1.370920773959299  0.
-0.0068185221373387225 1.3742312680974307  0.
0.19730200089071548 1.3909569537249797  0.
0.34287948081240954 1.4142930660862485  0.
0.43457175215575056 1.4369091799528226  0.
0.4756251885909234 1.451348327907419  0.
0.4686416974281524 1.4501526673113847  0.
0.4165834249976452 1.4258333899605868  0.
-2.4985172492601238 1.905707377666723  0.
-1.856796669830666 1.8379351024352661  0.
-1.300696371927824 1.7903664964770627  0.
-0.8302377512124229 1.7598750753633665  0.
-0.4403033427602451 1.7448837053360522  0.
-0.12405644007761393 1.7431247166748935  0.
0.1249740290269638 1.7509415642836175  0.
0.312071105919288 1.7634407411239181  0.
0.44121570583570785 1.7749093653237953  0.
0.5152727960919408 1.7791610845400876  0.
0.5363300907751472 1.7696891039410187  0.
0.5062155472146566 1.7396334355622016  0.
-2.8222040128346744 2.279860065918597  0.
-2.158725659543639 2.230073655376461  0.
-1.57453125441547 2.196438508476708  0.
-1.0691614800683726 2.1745406525029507  0.
-0.6392175393073923 2.162411921488275  0.
-0.2802049908077423 2.1584196696050215  0.
0.012242709464888047 2.160172437322274  0.
0.24185214093886898 2.1642402579688134  0.
0.41160673114217544 2.166320335295337  0.
0.5237647583905166 2.161497980072892  0.
0.5799227585530837 2.14440241037626  0.
0.5811687633819157 2.1091989923057386  0.
-3.157755169138318 2.697767427659879  0.
-2.4763412211717917 2.6661669586564716  0.
-1.8699425154494342 2.6463601665860788  0.
-1.3366079363944194 2.6335884244473924  0.
-0.8732201801051153 2.625805579592729  0.
-0.4764918032768474 2.621858381113952  0.
-0.14358037656155723 2.6202662944472825  0.
0.12780360183268624 2.618696551997792  0.
0.33952029763411207 2.6139685561028783  0.
0.49307556540929587 2.602269169990731  0.
0.5895730650614214 2.579324926474981  0.
0.6296469063161397 2.5404331992516647  0.
-3.506174180096166 3.1626362443711793  0.
-2.811172718133559 3.149608652749296  0.
-2.1881567095358894 3.1436607921380086  0.
-1.6333818030756226 3.140337975206678  0.
-1.1431104296950978 3.1378608803638635  0.
-0.7143149611333424 3.1356276747585947  0.
-0.34500990587390773 3.132965423059946  0.
-0.0340558315522615 3.1284340111621196  0.
0.21929627784377392 3.1197229802730133  0.
0.4157088326557063 3.1038782189419387  0.
0.5557626250205511 3.077536770764552  0.
0.6397897531829785 3.0370195041620196  0.
-3.8679803829465507 3.677726500736491  0.
-3.1644094165974375 3.6836901544606575  0.
-2.530392264494815 3.6917817220916147  0.
-1.9605573821483564 3.698182345312321  0.
-1.4500599107267003 3.7016186765533923  0.
-0.9953724666297514 3.702192859606336  0.
-0.5946845613646158 3.7001199983668074  0.
-0.24761056387458116 3.694839105199265  0.
0.045567237046907745 3.684770081681305  0.
0.28458797753931225 3.6675804631931714  0.
0.4694312056853621 3.6405561394379524  0.
0.6001546028429732 3.6007982112639167  0.
-4.243272455583184 4.246254500771744  0.
-3.536768702308267 4.271515845243214  0.
-2.8975580584569607 4.293973005354706  0.
-2.3191263764891983 4.310433873341912  0.
-1.7953395984167737 4.320194403177045  0.
-1.3215825401100423 4.324171529276912  0.
-0.895499525531766 4.323648386733741  0.
-0.5169378673186418 4.319123868101305  0.
-0.18705890583720436 4.309789099216861  0.
0.09282409378218558 4.2937721638064295  0.
0.32191673601747495 4.2687153719443085  0.
0.4999133285355893 4.2321898230105015  0.
-4.631899342374777 4.871342875094354  0.
-3.9284219663712965 4.916003404626824  0.
-3.28997487200364 4.95326831725137  0.
-2.7095860416395694 4.9802486607228635  0.
-2.1798708253041235 4.996669498559146  0.
-1.6947171504251826 5.004262993425902  0.
-1.2504748733683995 5.005524019189183  0.
-0.8464474936257171 5.002354294551945  0.
-0.48432072525935055 4.995023719179231  0.
-0.16662161888246382 4.982128313125728  0.
0.10471703429295835 4.961412920983428  0.
0.3287706009515744 4.930514285909164  0.
-5.0340030967802125 5.556235069506814  0.
-4.339105437703902 5.6201560006734566  0.
-3.7072651312883877 5.672726263713774  0.
-3.131601106133684 5.710650455987157  0.
-2.6036507253571637 5.733999154813171  0.
-2.115681206750121 5.7451612393632665  0.
-1.6621321340762505 5.747794593199346  0.
-1.2406566058875321 5.745482711022693  0.
-0.8525033328615095 5.740248349107587  0.
-0.5013706429824076 5.7315704640998755  0.
-0.1909417257965776 5.717056454962592  0.
0.07664209556354362 5.694101389747695  0.
-5.451029183752656 6.305111574412021  0.
-4.768788127906532 6.388391609977648  0.
-4.148791136317265 6.45620636253713  0.
-3.5841583983740235 6.504907401244658  0.
-3.0654599651068812 6.534783618221681  0.
-2.5835776096529317 6.549106870121256  0.
-2.131048799547292 6.552347700157363  0.
-1.7029514870943963 6.5494300170352115  0.
-1.298106224034758 6.5446503557154845  0.
-0.9199815374569005 6.5397638596085095  0.
-0.5747219908635515 6.532851630637236  0.
-0.26702953300115495 6.5197208257375365  0.
-5.88903260725286 7.127443194389653  0.
-5.219614366528105 7.229767583916953  0.
-4.61575265220482 7.311835389177384  0.
-4.067673806178929 7.367553380513999  0.
-3.564082384573378 7.400779480468236  0.
-3.095611849359155 7.416264662824697  0.
-2.6539776048188632 7.419023551120985  0.
-2.2321126621274017 7.414222042519798  0.
-1.825003325944362 7.4072286355468995  0.
-1.4316238090483535 7.402861079452234  0.
-1.0580057616018386 7.402153135171887  0.
-0.7137402496129931 7.402448648511647  0.
-6.356264664736767 8.044395508761543  0.
-5.700894174158868 8.174223622523513  0.
-5.11944708233693 8.256476196562346  0.
-4.590431532649196 8.306156967031944  0.
-4.1036124700909244 8.33206758383049  0.
-3.650807826150571 8.34134570698324  0.
-3.224803117565782 8.339598700013017  0.
-2.8185754635683513 8.331614514742293  0.
-2.4251108032070032 8.322061420138994  0.
-2.0378830970807185 8.316150378074298  0.
-1.6531052077645925 8.319238785779117  0.
-1.2797735210628356 8.324959926169704  0.
-6.88100366415325 9.18233266985805  0.
-6.264227881603265 9.272840456639395  0.
-5.698505247718498 9.316126195676533  0.
-5.181594581943732 9.32981532829401  0.
-4.704492472409528 9.325805863822207  0.
-4.260879501877552 9.311398253173035  0.
-3.845208667237337 9.291864127924134  0.
-3.452129434678227 9.271498849590188  0.
-3.0759467068698645 9.25436460945476  0.
-2.7100286256848833 9.245309285093951  0.
-2.3458758032228415 9.25272590439289  0.
-1.97067172087235 9.300887551625472  0.
</DataArray>
<DataArray type="Float64" Name="Nodal S_xx" NumberOfComponents="1" format="ascii" >
-22.190665834232725 
-15.018192275606761 
-5.426999297499475 
-1.2623182437191875 
1.6470696764686772 
3.5564332340178786 
4.686088221313238 
5.140694398076901 
5.026207315913686 
4.495294575147947 
3.7374134024073724 
3.3250694271407166 
-20.4937568095921 
-14.871803313455121 
-6.33250173411315 
-1.6087118561789473 
1.4268542629764494 
3.445340972120393 
4.660069210697514 
5.194172614201108 
5.146116880679279 
4.646776202848942 
3.8871863281338723 
3.4701438480830813 
-17.885095200415044 
-14.301783075556067 
-7.564331606141443 
-2.42125865674225 
0.914369980127671 
3.1467854303136535 
4.546696574000193 
5.253684596806963 
5.358994802905688 
4.95885506579269 
4.214451101256102 
3.7826997826513944 
-16.301778603410042 
-13.500987388017373 
-7.989457503502691 
-3.2098317664229636 
0.3019452747779025 
2.7276280927972296 
4.320255730379475 
5.218550627850799 
5.508720451153068 
5.263476527130219 
4.585795681338835 
4.155068478207315 
-15.144622663499508 
-12.791037683371705 
-8.066706199518242 
-3.734300075285729 
-0.28830475223920965 
2.253693649268599 
4.010975886677721 
5.09661032602634 
5.583923609728508 
5.525262878237058 
4.977289329942508 
4.589274895933938 
-14.29530841115745 
-12.176695405196087 
-7.962675141381891 
-4.044712814747923 
-0.7641506552734036 
1.7923136245536488 
3.662090322137885 
4.909490017113268 
5.587657704210374 
5.730987949460383 
5.363972778561383 
5.055714862984668 
-13.64748850489358 
-11.655880840068974 
-7.770159300346901 
-4.195130375200064 
-1.11373027514368 
1.3914009846249376 
3.315684276834247 
4.686779351384464 
5.534773065957816 
5.878828667672443 
5.723829999615342 
5.521311452114453 
-13.124664135398898 
-11.205865246177106 
-7.538720321186774 
-4.235007066075065 
-1.3497610517299834 
1.0683609698190608 
3.002223071181325 
4.457144170971652 
5.445685824186452 
5.975466781528137 
6.041445151855284 
5.956881993080354 
-12.663308283023142 
-10.796147870282095 
-7.289838943289324 
-4.201909326257544 
-1.4949268618998732 
0.8223696941428804 
2.73635329192241 
4.241760210191605 
5.34003256013175 
6.031826484717714 
6.308905168767038 
6.341943763215738 
-12.207560492447948 
-10.391688423072178 
-7.026719441645572 
-4.120491582592226 
-1.5731486881346477 
0.6415921668718327 
2.519525653689132 
4.051393911021595 
5.232143464471376 
6.058952904856691 
6.524536671219619 
6.665596872580435 
-11.705894970557996 
-9.954624566177358 
-6.739677510045241 
-4.00324911368469 
-1.6050899288107674 
0.5085462256571622 
2.3429210221596684 
3.8863816808077636 
5.128703127913592 
6.064925967454048 
6.690468375381458 
6.924794814525576 
-11.109992239273062 
-9.445034287140865 
-6.408726959698276 
-3.8509971030670354 
-1.6054608928922152 
0.4037932752239062 
2.1900161389185007 
3.7373309509985986 
5.027871813930773 
6.052872812196914 
6.809965053112053 
7.121406771045573 
-10.375642348176733 
-8.821792146665173 
-6.0040955950266115 
-3.6519714190137935 
-1.5803074400675488 
0.30892424648639594 
2.0383181118009555 
3.5853883143723833 
4.918533666674236 
6.019463401715364 
6.884891234871414 
7.259012814537805 
-9.466065933676305 
-8.044218299518905 
-5.485406608808563 
-3.3789850581339853 
-1.5224631235927935 
0.21058164520902053 
1.8606991389613934 
3.400931459908782 
4.7780782903693995 
5.952669564681905 
6.912974582430728 
7.339740000750387 
-8.357053168153179 
-7.075031281294084 
-4.800832255693023 
-2.985236285795478 
-1.4038097655461406 
0.10890454432962621 
1.6289659369657978 
3.140483752668329 
4.565999475102765 
5.826360576157896 
6.883811987894674 
7.360254977162388 
-7.041992854755923 
-5.882281348069228 
-3.88796850550388 
-2.4034939315348005 
-1.166054416511913 
0.034547475331885985 
1.328449136380748 
2.746177527023282 
4.2109719987973975 
5.585522787663751 
6.769164226208143 
7.306187003155287 
-5.50845989438055 
-4.433466774602872 
-2.6840132554843636 
-1.5583317431538042 
-0.7256711502634382 
0.0694069825314059 
1.0007058473026624 
2.1745710543540273 
3.594808950193368 
5.112097661942695 
6.497674071244547 
7.129994669462096 
-3.6744898980004326 
-2.6295330597973496 
-1.1310127532166039 
-0.4363173677937465 
-0.024706667082240258 
0.33362130607347373 
0.8004341645913348 
1.5216076216758183 
2.626686033107138 
4.153827532360008 
5.863352677148377 
6.708604946059171 
-0.6260126775702477 
-0.12158447573162373 
0.5582084561237683 
0.7861210607348725 
0.8499039304673282 
0.874081702114988 
0.9411795637112625 
1.1456767724920665 
1.628120363388975 
2.602549787995269 
4.307493873583037 
5.370110001767349 
1.4133974998516385 
1.375323837781759 
1.3764862217725615 
1.3842469805772386 
1.305829064643049 
1.2091010969562745 
1.1221641101884579 
1.0897687147549808 
1.2061216380965678 
1.6945294330644007 
3.198257387503025 
4.325174217989654 
</DataArray>
<DataArray type="Float64" Name="Nodal S_yy" NumberOfComponents="1" format="ascii" >
-7.507861234933432 
-5.7131939556794 
-2.9821949080964445 
-1.1292275105398781 
0.45518274279395377 
1.5840245451603585 
2.3061110145156603 
2.655641419663189 
2.7014458186904355 
2.5481309631514133 
2.3274902988591903 
2.217457775080795 
-4.48809886892194 
-4.081041561786588 
-2.9468144095694826 
-1.4650896930218336 
-0.08366177175470435 
1.012870628959177 
1.7931284091269086 
2.2704838209690514 
2.4903298679766976 
2.5269534054001386 
2.4863036109167025 
2.4621193434304143 
-1.256596754296436 
-1.932906178519956 
-2.4384587968486073 
-1.8172288502693856 
-0.8632054840912975 
0.09772814385846844 
0.9315524081530213 
1.596111109180339 
2.0917732782016087 
2.440709831541524 
2.6815416005048607 
2.780981145960755 
-0.9204362651090922 
-1.2012989326778372 
-1.6555745760342095 
-1.6465074013600416 
-1.1195988183645063 
-0.3794448426002142 
0.40241264351883527 
1.1374324638528577 
1.786883413134515 
2.335118232702524 
2.7640709314199077 
2.945351882405415 
-0.7474543068746682 
-0.8745091341066933 
-1.1432745870802954 
-1.2553582693820542 
-1.0134983964492719 
-0.4852204835324109 
0.1919972799997249 
0.9214008280076665 
1.6422177188496407 
2.3152640723817792 
2.902760566606874 
3.1697968302421016 
-0.6721450628120273 
-0.6997441657947671 
-0.8012756883421841 
-0.8657523080252185 
-0.7179977475737869 
-0.3286854365730526 
0.2468400304151183 
0.935258698853194 
1.6765629502495178 
2.424659811508567 
3.138499923279211 
3.4816406733062797 
-0.6275823714310843 
-0.593418246033866 
-0.5581156535626832 
-0.5187567562299613 
-0.3581433779095385 
-0.02031674561608758 
0.4894322105442612 
1.1345090472332946 
1.8709949695987786 
2.6589224812266776 
3.4628636814025455 
3.864601727555528 
-0.5938509025155561 
-0.5159063314588969 
-0.37017913015446846 
-0.21597033430978124 
0.009063740406647647 
0.35578280471988843 
0.8420749874248266 
1.4588587429959317 
2.1827885379157537 
2.9865311982061504 
3.8443753932109384 
4.283803994785256 
-0.5605257232872813 
-0.44748080021310443 
-0.2102318261299317 
0.05181800324644888 
0.35975962222990965 
0.7486269642218344 
1.2426695066266549 
1.8491210916301002 
2.5613708710281293 
3.365305999749742 
4.245315517963684 
4.702459142879571 
-0.522349807304149 
-0.37781271012702367 
-0.06177145224666392 
0.29533597598610384 
0.6867720616164757 
1.130741161198495 
1.64946729505263 
2.2580082150778074 
2.9610172861470963 
3.7548553092713983 
4.632147679490796 
5.090660030002956 
-0.4765068345875699 
-0.30177413758973926 
0.08457453838795984 
0.5235595086238527 
0.9908540734344304 
1.4902050089525452 
2.0385691629907323 
2.653890848736001 
3.3477748601365143 
4.1239047298618114 
4.980633245101695 
5.428733008346152 
-0.42182975723857674 
-0.21762095828135297 
0.23287022389518786 
0.7424259512956471 
1.2757914104566725 
1.824708279759925 
2.3999058594866804 
3.0199719682488313 
3.7012620198482566 
4.452803092054996 
5.276795431984118 
5.706843467947163 
-0.3586250874277509 
-0.1263780837198954 
0.3826755680832188 
0.9540988109116947 
1.5452702017637112 
2.137048015944271 
2.733094100648671 
3.351608356481387 
4.0133675334088785 
4.7327389684311445 
5.515283664096264 
5.922524912476536 
-0.28885476113541925 
-0.03142482800732621 
0.5300034959286785 
1.157090877938665 
1.8009954986548218 
2.4314634944363513 
3.0433881020790228 
3.652911828812282 
4.285719521769937 
4.963323996764985 
5.696466347521767 
6.07756043088312 
-0.21477170890629388 
0.06344589563561033 
0.6713735245320689 
1.3506819549983577 
2.0442034310366637 
2.711672218451814 
3.337644270263874 
3.9327691492780263 
4.526114124261549 
5.149876140002316 
5.823198782896084 
6.173405840341936 
-0.1406191503724229 
0.16170978262485552 
0.8206187536387715 
1.552907095030369 
2.291006498826351 
2.987032451084893 
3.621679332663535 
4.1990799764337865 
4.744635725494225 
5.297271400190924 
5.896534409036844 
6.212328878217374 
-0.029478087353875387 
0.30563497831435016 
1.0552218699871865 
1.868482559737185 
2.629476299130122 
3.312576755729782 
3.9152112333894817 
4.447857994461536 
4.935793680377977 
5.412427819181339 
5.903495681778647 
6.15495922712457 
0.03970399102372349 
0.6377593942082147 
1.740211027743193 
2.6479883108874085 
3.365219174239015 
3.9235867877585786 
4.361996423145212 
4.716937476730817 
5.032279971143323 
5.379593931956097 
5.836545298374808 
6.10047597723259 
1.6721791353357298 
2.5070251947285804 
3.8648868944172516 
4.709009237082066 
5.206518156271457 
5.454824933945972 
5.5208312104426565 
5.4491412495253915 
5.273007088027407 
5.0424200380258135 
4.879644395329619 
4.837113317696868 
3.3103764561790263 
4.136845643912617 
5.458931665758247 
6.198527938053892 
6.522471700612355 
6.56220351158465 
6.386327614808279 
6.030574384781552 
5.503315479112757 
4.789050367844144 
3.9734865197495504 
3.5650387239076946 
</DataArray>
<DataArray type="Float64" Name="Nodal S_xy" NumberOfComponents="1" format="ascii" >
2.7436327070837874 
1.5508913713849046 
0.2910157211449875 
0.4447377021828414 
0.9479338236132493 
1.5216134081259118 
2.08084500444516 
2.5688974429480096 
2.934227163288619 
3.1190869800179994 
3.0640494087764893 
2.969321140301463 
1.1022603178860462 
1.0303601448256003 
0.8567495165347441 
0.8953125363243353 
1.2542265059706206 
1.712855486598986 
2.181905889511167 
2.605152448727165 
2.934107765339296 
3.116865923862592 
3.1075986230659565 
3.0503438380522567 
-1.0339536406321723 
0.11702447549035144 
1.4011591236705037 
1.6119429034329387 
1.8213852987130894 
2.1125890878268017 
2.4363608919245263 
2.7501647045081907 
3.014195132639034 
3.185797545302987 
3.227406037004376 
3.2120218941483465 
-1.7584759039974283 
-0.5367233456767707 
1.2077467923946776 
1.9215494088822658 
2.243059876950751 
2.5009448331920625 
2.7567237220053 
3.005655165301196 
3.224930303714784 
3.3802798278077866 
3.426577533171348 
3.4161887734632126 
-2.0973030367688787 
-0.9686591191239728 
0.8509092816962976 
1.9002677720644066 
2.459216149431141 
2.804556783382451 
3.0735251670116233 
3.3086508058221398 
3.511983824413262 
3.66241136719034 
3.7166528896717717 
3.712816369008583 
-2.2533310779902633 
-1.245205681141948 
0.5114566247129653 
1.7350354442651907 
2.5039910807789036 
2.9945070294283966 
3.3397256444423786 
3.610161708932436 
3.8313416846597463 
3.9991237638066623 
4.082281976197805 
4.097018413011861 
-2.310454447031194 
-1.406826050046257 
0.2466426906206104 
1.5388845984117423 
2.453966146297211 
3.0864005133734125 
3.5375458925114804 
3.8788023021671094 
4.148775191050138 
4.358520426598353 
4.493222136066224 
4.538286085051414 
-2.305687440588099 
-1.4794732305047043 
0.07382303217858696 
1.3733297369852013 
2.3732010576312756 
3.11723432244182 
3.6736201841774205 
4.101532256321313 
4.441023798494823 
4.712283584925494 
4.915245832241944 
4.998327028521753 
-2.2549151910504053 
-1.4792080932705223 
-0.0058721564176691665 
1.2697819621858308 
2.3063142701475234 
3.1239916620607135 
3.7669687043875806 
4.279400327495782 
4.695823020548318 
5.038814233055469 
5.317888423030095 
5.4417691492867455 
-2.163737062762949 
-1.4156107315430053 
0.0027270395842051154 
1.2422067057276496 
2.281341629696542 
3.1362431357330567 
3.838752100785186 
4.4210615016177455 
4.909656119438968 
5.324473688762337 
5.678693903812083 
5.84185592327545 
-2.032908610868012 
-1.2942889973580276 
0.0931246500268272 
1.2951473824121118 
2.3145056243293936 
3.175123851860695 
3.907411146620836 
4.537474010010291 
5.084452084384215 
5.562750729536768 
5.984200874286499 
6.182066195503852 
-1.8615938780279098 
-1.118965884163023 
0.2587935431054129 
1.4287738493112883 
2.415074345466304 
3.255359376054341 
3.9875876106797263 
4.63904910037448 
5.22462179776962 
5.7521983428531716 
6.228577802473081 
6.454886752099867 
-1.6498416613292215 
-0.8934788081146762 
0.49332435265717545 
1.6419119430986258 
2.589695655262642 
3.388885721701279 
4.091729632269668 
4.735066846984038 
5.335066374443123 
5.8939713751980465 
6.410949415461959 
6.658975041125284 
-1.4008877664849608 
-0.6237626555860893 
0.7896925737520574 
1.9333045914326057 
2.845582992997453 
3.589161303369171 
4.233965818276329 
4.8355196876688105 
5.420501706506444 
5.989436484471582 
6.532121890045043 
6.795523373957532 
-1.1229148805746165 
-0.3189200958133236 
1.1397617997159857 
2.300970375517905 
3.1908106803077914 
3.874157399351688 
4.435642020880628 
4.956237944710093 
5.487383358843721 
6.03838927263857 
6.590736499316577 
6.864084044744926 
-0.8267764236992784 
0.012770891863887829 
1.5376123758260998 
2.740173929040434 
3.6278611486240644 
4.261075092646655 
4.7277967010111634 
5.1280471720492375 
5.550940600327575 
6.040178097553339 
6.579472565253881 
6.8560999920791845 
-0.5075960502213249 
0.3865194562848283 
2.0004912191381212 
3.2454746257894587 
4.133991050871898 
4.735679506256549 
5.127281219435178 
5.398485939425925 
5.656479376036637 
6.002874473894181 
6.480314946133555 
6.751451569707572 
-0.05419952014980822 
0.9422621634851929 
2.6339463856935814 
3.8112318982779456 
4.626109742201567 
5.179883956683253 
5.534681926836473 
5.7411941825305375 
5.866622600460927 
6.014373750934481 
6.2946972292122405 
6.480024344836952 
1.4369013878077324 
2.2674191993509307 
3.582807426941013 
4.383955588317827 
4.923734129103837 
5.311086285305878 
5.592497963591143 
5.78687661815747 
5.909637202793734 
6.006306596824463 
6.2138820442560165 
6.370730345266083 
2.6425179573769038 
3.238751963065286 
4.150616729678056 
4.659575804150704 
4.994275071907339 
5.252025958069366 
5.469251086260201 
5.656469994464244 
5.814325540168617 
5.960332090541461 
6.2440212282838665 
6.453185649390941 
</DataArray>
</PointData>
<CellData>
</CellData>
<Points>
<DataArray type="Float64" Name="Points" NumberOfComponents="3" format="ascii">
0.0 50.0 0.0
0.0 45.4545441 0.0
0.0 40.9090919 0.0
0.0 36.363636 0.0
0.0 31.818182 0.0
0.0 27.272728 0.0
0.0 22.727272 0.0
0.0 18.181818 0.0
0.0 13.636364 0.0
0.0 9.090909 0.0
0.0 4.5454545 0.0
0.0 0.0 0.0
2.52631569 50.5263176 0.0
2.52631569 46.1435394 0.0
2.52631569 41.7607651 0.0
2.52631569 37.3779907 0.0
2.52631569 32.9952164 0.0
2.52631569 28.6124401 0.0
2.52631569 24.2296658 0.0
2.52631569 19.8468895 0.0
2.52631569 15.4641151 0.0
2.52631569 11.0813398 0.0
2.52631569 6.69856453 0.0
2.52631569 2.31578946 0.0
5.05263138 51.0526314 0.0
5.05263138 46.8325348 0.0
5.05263138 42.612442 0.0
5.05263138 38.3923454 0.0
5.05263138 34.1722488 0.0
5.05263138 29.9521523 0.0
5.05263138 25.7320576 0.0
5.05263138 21.511961 0.0
5.05263138 17.2918663 0.0
5.05263138 13.0717707 0.0
5.05263138 8.85167503 0.0
5.05263138 4.63157892 0.0
7.57894754 51.578949 0.0
7.57894754 47.5215302 0.0
7.57894754 43.4641151 0.0
7.57894754 39.4067001 0.0
7.57894754 35.3492813 0.0
7.57894754 31.2918663 0.0
7.57894754 27.2344494 0.0
7.57894754 23.1770344 0.0
7.57894754 19.1196175 0.0
7.57894754 15.0622005 0.0
7.57894754 11.0047846 0.0
7.57894754 6.94736862 0.0
10.1052628 52.1052628 0.0
10.1052628 48.2105255 0.0
10.1052628 44.3157883 0.0
10.1052628 40.421051 0.0
10.1052628 36.5263176 0.0
10.1052628 32.6315804 0.0
10.1052628 28.7368412 0.0
10.1052628 24.8421059 0.0
10.1052628 20.9473686 0.0
10.1052628 17.0526314 0.0
10.1052628 13.1578951 0.0
10.1052628 9.26315784 0.0
12.6315794 52.6315804 0.0
12.6315794 48.8995209 0.0
12.6315794 45.1674652 0.0
12.6315794 41.4354057 0.0
12.6315794 37.7033501 0.0
12.6315794 33.9712906 0.0
12.6315794 30.2392349 0.0
12.6315794 26.5071774 0.0
12.6315794 22.7751198 0.0
12.6315794 19.0430622 0.0
12.6315794 15.3110046 0.0
12.6315794 11.5789471 0.0
15.1578951 53.1578941 0.0
15.1578951 49.5885162 0.0
15.1578951 46.0191383 0.0
15.1578951 42.4497604 0.0
15.1578951 38.8803825 0.0
15.1578951 35.3110046 0.0
15.1578951 31.7416267 0.0
15.1578951 28.1722488 0.0
15.1578951 24.6028709 0.0
15.1578951 21.033493 0.0
15.1578951 17.4641151 0.0
15.1578951 13.8947372 0.0
17.6842098 53.6842117 0.0
17.6842098 50.2775116 0.0
17.6842098 46.8708153 0.0
17.6842098 43.4641151 0.0
17.6842098 40.057415 0.0
17.6842098 36.6507187 0.0
17.6842098 33.2440186 0.0
17.6842098 29.8373203 0.0
17.6842098 26.4306221 0.0
17.6842098 23.0239239 0.0
17.6842098 19.6172256 0.0
17.6842098 16.2105255 0.0
20.2105255 54.2105255 0.0
20.2105255 50.966507 0.0
20.2105255 47.7224884 0.0
20.2105255 44.4784698 0.0
20.2105255 41.2344513 0.0
20.2105255 37.9904289 0.0
20.2105255 34.7464104 0.0
20.2105255 31.5023918 0.0
20.2105255 28.2583733 0.0
20.2105255 25.0143547 0.0
20.2105255 21.7703342 0.0
20.2105255 18.5263157 0.0
22.7368412 54.7368431 0.0
22.7368412 51.6555023 0.0
22.7368412 48.5741615 0.0
22.7368412 45.4928246 0.0
22.7368412 42.4114838 0.0
22.7368412 39.330143 0.0
22.7368412 36.2488022 0.0
22.7368412 33.1674652 0.0
22.7368412 30.0861244 0.0
22.7368412 27.0047855 0.0
22.7368412 23.9234447 0.0
22.7368412 20.8421059 0.0
25.2631588 55.2631569 0.0
25.2631588 52.3444977 0.0
25.2631588 49.4258385 0.0
25.2631588 46.5071754 0.0
25.2631588 43.5885162 0.0
25.2631588 40.669857 0.0
25.2631588 37.7511978 0.0
25.2631588 34.8325348 0.0
25.2631588 31.9138756 0.0
25.2631588 28.9952145 0.0
25.2631588 26.0765553 0.0
25.2631588 23.1578941 0.0
27.7894745 55.7894745 0.0
27.7894745 53.033493 0.0
27.7894745 50.2775116 0.0
27.7894745 47.5215302 0.0
27.7894745 44.7655487 0.0
27.7894745 42.0095711 0.0
27.7894745 39.2535896 0.0
27.7894745 36.4976082 0.0
27.7894745 33.7416267 0.0
27.7894745 30.9856453 0.0
27.7894745 28.2296658 0.0
27.7894745 25.4736843 0.0
30.3157902 56.3157883 0.0
30.3157902 53.7224884 0.0
30.3157902 51.1291847 0.0
30.3157902 48.5358849 0.0
30.3157902 45.942585 0.0
30.3157902 43.3492813 0.0
30.3157902 40.7559814 0.0
30.3157902 38.1626778 0.0
30.3157902 35.5693779 0.0
30.3157902 32.976078 0.0
30.3157902 30.3827744 0.0
30.3157902 27.7894745 0.0
32.8421059 56.8421059 0.0
32.8421059 54.4114838 0.0
32.8421059 51.9808617 0.0
32.8421059 49.5502396 0.0
32.8421059 47.1196175 0.0
32.8421059 44.6889954 0.0
32.8421059 42.2583733 0.0
32.8421059 39.8277512 0.0
32.8421059 37.3971291 0.0
32.8421059 34.966507 0.0
32.8421059 32.5358849 0.0
32.8421059 30.1052628 0.0
35.3684196 57.3684196 0.0
35.3684196 55.1004791 0.0
35.3684196 52.8325348 0.0
35.3684196 50.5645943 0.0
35.3684196 48.2966499 0.0
35.3684196 46.0287094 0.0
35.3684196 43.7607651 0.0
35.3684196 41.4928246 0.0
35.3684196 39.2248802 0.0
35.3684196 36.9569397 0.0
35.3684196 34.6889954 0.0
35.3684196 32.421051 0.0
37.8947372 57.8947372 0.0
37.8947372 55.7894745 0.0
37.8947372 53.6842117 0.0
37.8947372 51.578949 0.0
37.8947372 49.4736824 0.0
37.8947372 47.3684196 0.0
37.8947372 45.2631569 0.0
37.8947372 43.1578941 0.0
37.8947372 41.0526314 0.0
37.8947372 38.9473686 0.0
37.8947372 36.8421059 0.0
37.8947372 34.7368431 0.0
40.421051 58.421051 0.0
40.421051 56.4784698 0.0
40.421051 54.5358849 0.0
40.421051 52.5932999 0.0
40.421051 50.6507187 0.0
40.421051 48.7081337 0.0
40.421051 46.7655487 0.0
40.421051 44.8229675 0.0
40.421051 42.8803825 0.0
40.421051 40.9377975 0.0
40.421051 38.9952164 0.0
40.421051 37.0526314 0.0
42.9473686 58.9473686 0.0
42.9473686 57.1674652 0.0