<?xml version="1.0"?>
<VTKFile type="UnstructuredGrid" version="0.1" byte_order="LittleEndian" compressor="vtkZLibDataCompressor">
<UnstructuredGrid>
<Piece NumberOfPoints="240" NumberOfCells="209">
<PointData>
<DataArray type="Float64" Name="displacement" NumberOfComponents="3" format="ascii" >
0.0 0.0  0.
0.0 0.0  0.
0.0 0.0  0.
0.0 0.0  0.
0.0 0.0  0.
0.0 0.0  0.
0.0 0.0  0.
0.0 0.0  0.
0.0 0.0  0.
0.0 0.0  0.
0.0 0.0  0.
0.0 0.0  0.
-0.17924297528145433 0.1519515384362239  0.
-0.060801785826964584 0.030543687481145457  0.
-0.029490093899480038 0.006819001428278286  0.
-0.006267167911576605 0.00989272308635987  0.
0.009622537536036977 0.022794547279135446  0.
0.0207301698001572 0.04031021862177538  0.
0.027430065166925706 0.05887280847190485  0.
0.030078708457814105 0.07581475582960345  0.
0.0290741505919664 0.08874186235765807  0.
0.025133589688741995 0.09557182613947834  0.
0.01967550548308069 0.09502737863875879  0.
0.013896107154397002 0.08627664137361743  0.
-0.35609240871202147 0.22990935065755883  0.
-0.16656906002466426 0.12134861169151219  0.
-0.07440342664051623 0.06483219346982272  0.
-0.020854985186123 0.056082258656177095  0.
0.016481705134688458 0.06945608078155252  0.
0.04207335943078305 0.09351281840738164  0.
0.05802769867165961 0.12160087164637395  0.
0.06519098903234348 0.14881621699689856  0.
0.06431428731803883 0.17109602908360724  0.
0.056561928392933745 0.18500776973193178  0.
0.04410038091616872 0.18812790037125168  0.
0.03051698764660719 0.18040961304646932  0.
-0.5199094436581801 0.31908898155668547  0.
-0.2884190352270667 0.22120193039374528  0.
-0.14321493274842387 0.1588721865504973  0.
-0.049794885547461226 0.13637175814466357  0.
0.014193851536417381 0.14275451213142526  0.
0.05866241435601579 0.16533048522590427  0.
0.0873530656186391 0.19550758679927058  0.
0.10209082575682826 0.22687092817228527  0.
0.10403382945710889 0.2541813086049115  0.
0.0945950086925579 0.2730283100740004  0.
0.07628145813168723 0.2800809256970382  0.
0.05369510437934785 0.27410915004055275  0.
-0.678132850753932 0.42211864512760544  0.
-0.4178021397189617 0.3348690102921755  0.
-0.2297347559649078 0.2737922648587347  0.
-0.09673109843222255 0.24453436793046135  0.
-0.0018307545348855874 0.2424392522619609  0.
0.0655241086667427 0.25904833078881756  0.
0.11082646559633877 0.28603434161038416  0.
0.13682216423946242 0.31649025155443883  0.
0.1451747946657654 0.3445748083789641  0.
0.13744990093510007 0.36525892598591875  0.
0.11607139028823588 0.374397589334456  0.
0.08547980381010031 0.36931324884074923  0.
-0.8345704001692356 0.5416615980778116  0.
-0.5521818740116892 0.4637019042183035  0.
-0.32985622369076484 0.4069607065187975  0.
-0.1608804199978108 0.3751431320450619  0.
-0.034299468431935806 0.36657568866120227  0.
0.05879867499045769 0.3759672777282007  0.
0.124162064816604 0.39684766848757097  0.
0.16516930210408393 0.4228612422866646  0.
0.18387998443661127 0.4482082178709616  0.
0.1819487087854663 0.4676482968884907  0.
0.16148545284183752 0.4765261205569176  0.
0.12611690749012297 0.47101609262827826  0.
-0.9918552293478463 0.6792091529587743  0.
-0.6910966937203851 0.6095262534138702  0.
-0.4411647440570168 0.5580892832617836  0.
-0.24085434280414308 0.5263423747424537  0.
-0.0839983300777084 0.5135042076336662  0.
0.03588390616006006 0.5163605581563833  0.
0.12378773695782984 0.5302363892714161  0.
0.18308325943605652 0.5499176988890505  0.
0.2159801793964543 0.5701729883966886  0.
0.22411945948753031 0.5859698983975234  0.
0.20922417486551054 0.5925363044998463  0.
0.17391372300752697 0.5854304160776272  0.
-1.151772167577705 0.8362472138766187  0.
-0.8349404281804039 0.774162348159297  0.
-0.5624479620535657 0.7282146160816145  0.
-0.3354385938744995 0.6980095427080975  0.
-0.1509200059521146 0.682769299353333  0.
-0.00470577417822959 0.6804220769341485  0.
0.1069773779190408 0.6876978755591289  0.
0.18699588682221485 0.7005615322693435  0.
0.23738691750787697 0.7146171751008275  0.
0.25964581856922186 0.7253557430110172  0.
0.2551119768769112 0.7282553705478092  0.
0.22549220565110387 0.7187896126247425  0.
-1.3155633965096136 1.0143519882134941  0.
-0.984406756184143 0.9595131376772469  0.
-0.6932786050832626 0.9189754475688717  0.
-0.4438318232819314 0.8911050206861766  0.
-0.23481772697085157 0.8748541123476503  0.
-0.06378993323559094 0.8687322035501792  0.
0.07176189887529484 0.8704485851472238  0.
0.1739361495121282 0.8769775283489257  0.
0.24434354784416082 0.8847853478336165  0.
0.28419810478439517 0.8900404014744987  0.
0.2944824316320853 0.888723354465843  0.
0.27620650314397616 0.876628643743078  0.
-1.484068716955781 1.2152300162005745  0.
-1.1402344492465746 1.1675541832234793  0.
-0.8337057526687862 1.1323269107117695  0.
-0.5656543783263773 1.1072147534997983  0.
-0.3354989595132274 1.0909326238947814  0.
-0.14187128714187383 1.0823035826031342  0.
0.016696983043772245 1.0797092742266068  0.
0.141481197443153 1.0809187380431593  0.
0.23352026792336225 1.0831665557027272  0.
0.2936424584988623 1.0833107501598263  0.
0.32249708854632064 1.0779455400220996  0.
0.3206188635166463 1.0634183419693957  0.
-1.657787429401276 1.4406994785691198  0.
-1.3030744998540915 1.400312629019095  0.
-0.9840263195180681 1.3703773472423664  0.
-0.7008671344899794 1.3482790101899143  0.
-0.4529539550690813 1.3326389795852362  0.
-0.2393797745499397 1.322519726594925  0.
-0.059375419388523414 1.316809427813571  0.
0.087605730595734 1.313904261765721  0.
0.20198262934986655 1.3116779981240199  0.
0.28413097150224187 1.3076046466613176  0.
0.3343758537328556 1.2988832320336365  0.
0.3529432715037093 1.2824837321139535  0.
-1.8369054477997224 1.692648619220745  0.
-1.4734058667997703 1.6598237295052096  0.
-1.14460618829196 1.6352827311411366  0.
-0.8496488715265196 1.616413434097475  0.
-0.5873727334152961 1.6018898688348877  0.
-0.3568185002716776 1.5910388866814238  0.
-0.1575296563029925 1.5832083807419732  0.
0.01049486338181477 1.5773376853688703  0.
0.14707564421843425 1.5718347029365773  0.
0.25209023639467093 1.5646821246904077  0.
0.3255257302330751 1.553596375583629  0.
0.3673899112695903 1.5361186374878928  0.
-2.021305176896082 1.972979192508593  0.
-1.6514687924627958 1.9480734509861857  0.
-1.3157281823009814 1.9291641021420012  0.
-1.0122389405333678 1.9137863408041889  0.
-0.7390756518480452 1.9007541616825616  0.
-0.4948107916607512 1.889707378136546  0.
-0.27890069039278204 1.8804848317080671  0.
-0.09163821743994047 1.872578232923765  0.
0.06626128157479141 1.8648887976650481  0.
0.19413083570088951 1.8558107539812705  0.
0.2915672416315386 1.8434532191652182  0.
0.3583727763408775 1.8258018804327623  0.
-2.210604350198554 2.2835464934071243  0.
-1.8372070316711908 2.2669350060224285  0.
-1.497441329817591 2.254034722251667  0.
-1.1887482599686197 2.242523381363909  0.
-0.9083528789190786 2.231353467647388  0.
-0.6540348116308534 2.22048977227261  0.
-0.42473586417007986 2.210319710401433  0.
-0.22070352870564355 2.200981167024243  0.
-0.0430664286464143 2.191926348635206  0.
0.10689282488633618 2.1819190801926114  0.
0.22826161370069326 2.1693294260315  0.
0.3205684457603418 2.152425505977186  0.
-2.4042618432376983 2.626129830566027  0.
-2.030239099861244 2.6181455169731405  0.
-1.689419845868651 2.611757890182606  0.
-1.3789399817277468 2.6046372934791764  0.
-1.0952130197736794 2.595773835266046  0.
-0.8350011920068576 2.5854069661907775  0.
-0.596293834691533 2.5744831659035152  0.
-0.3787944556585398 2.563924452422666  0.
-0.18376617414099058 2.5539220497864363  0.
-0.013168586989487203 2.5436805629555352  0.
0.13134044744759718 2.5317448045671966  0.
0.24882699270374584 2.5164621576562256  0.
-2.601885792506021 3.0025750384007384  0.
-2.22991398157782 3.0034388461146375  0.
-1.890893994156027 3.0041536110123435  0.
-1.5820488934547268 3.0020090082035105  0.
-1.2990743296575422 2.995964546497709  0.
-1.0376476218013597 2.9864216933601755  0.
-0.7944635600738083 2.974790614231483  0.
-0.5680234151909 2.9628184616050786  0.
-0.35905596197813816 2.951744003697176  0.
-0.17005570177301615 2.941519397253723  0.
-0.003785259532004638 2.930845251996794  0.
0.13794354798343744 2.9180228261762  0.
-2.803792178128536 3.415327989945421  0.
-2.435579245304893 3.4253063453026225  0.
-2.100826890257865 3.433462976701392  0.
-1.7968468623908709 3.436610493372405  0.
-1.5186391724879926 3.433585878821076  0.
-1.260871398979581 3.4250888575123546  0.
-1.0189699187226897 3.412807721181864  0.
-0.7897620051568188 3.3990216757045206  0.
-0.5722735080064979 3.386081030401682  0.
-0.36846565742350407 3.3753778755246238  0.
-0.18244663803514982 3.3663007689699174  0.
-0.017813568405690382 3.356552130787135  0.
-3.0125883112005405 3.8701651172329137  0.
-2.6473521047084474 3.8890320608499604  0.
-2.3187452901751415 3.9045016772047396  0.
-2.0227333286133016 3.9113211609771286  0.
-1.7526582247462075 3.9098583001722274  0.
-1.5026637172432513 3.901627599581263  0.
-1.2675333404616975 3.8885718708566603  0.
-1.0427826197812322 3.8729323529391193  0.
-0.8251117121732735 3.857324497373088  0.
-0.6135280705786483 3.8445196391017302  0.
-0.4113665600519218 3.8359499848421037  0.
-0.22511025024395837 3.8307185702854136  0.
-3.2319029556469885 4.380065965427037  0.
-2.8671467797495307 4.41254948763811  0.
-2.548896483661091 4.428499581252966  0.
-2.2633411421913094 4.431618218153294  0.
-2.0031001501529446 4.425512321327809  0.
-1.762558210765783 4.413249417336287  0.
-1.536964860755649 4.397227787477706  0.
-1.3218526571669749 4.379461572984557  0.
-1.1128297354416992 4.361944326890812  0.
-0.9057635077734257 4.347077203233216  0.
-0.6979719533273187 4.337808680719152  0.
-0.49431376255052756 4.332703182520412  0.
-3.4663268778953746 5.02061405050799  0.
-3.1186649845462955 5.034267198605767  0.
-2.8113744942518144 5.025563682576361  0.
-2.5348567583660446 5.00573995737429  0.
-2.2820208713021395 4.980487888493085  0.
-2.0482394702508495 4.953101577400079  0.
-1.8297568078278268 4.925835127465973  0.
-1.6231199834979324 4.900460732060962  0.
-1.4247585868190529 4.878618597313882  0.
-1.2305524448327174 4.86228340869094  0.
-1.0351180171758008 4.855070924383352  0.
-0.8295681903666228 4.86853607896835  0.
</DataArray>
<DataArray type="Float64" Name="Nodal S_xx" NumberOfComponents="1" format="ascii" >
-10.775407566266265 
-7.510445120250598 
-2.988505687076841 
-0.7931996081172878 
0.7910477235643878 
1.8599989793066538 
2.504731419281229 
2.7698275949208355 
2.7094430215565835 
2.4110971533573373 
1.9936708816392863 
1.7708091532291437 
-9.972809004441523 
-7.43755118404426 
-3.4281547112956607 
-0.983831620827114 
0.668834073470447 
1.800109878116961 
2.4949317120293637 
2.8058270840557857 
2.7823738625934467 
2.5000657971822373 
2.0767005154637075 
1.8473219911138643 
-8.767413896002042 
-7.171863250451848 
-4.022819671294178 
-1.41347713972274 
0.3883109767439862 
1.6383123579675307 
2.4399868511553757 
2.8505434203259985 
2.913557641385137 
2.684311927913223 
2.261025680474602 
2.017054428863478 
-8.075520341738661 
-6.8133542514502 
-4.225175933210798 
-1.8158403936227039 
0.0607884303150073 
1.4113553947213615 
2.3209294224792405 
2.841301759318878 
3.0100472195654593 
2.8668478964010933 
2.4751852803102437 
2.2274076864427843 
-7.58579386357564 
-6.506512210578918 
-4.265722540427147 
-2.0824794895237715 
-0.2505085686906736 
1.1564851301275785 
2.1561277954295823 
2.7832583159489515 
3.0653216204203115 
3.027737247125328 
2.705375935081962 
2.478416633854093 
-7.241878587141372 
-6.251071722896587 
-4.226654077324152 
-2.244138827158582 
-0.5018671191417527 
0.9090033287934542 
1.9695082947577953 
2.6886643442865177 
3.08093431800668 
3.1591720695772176 
2.93743328512783 
2.7535724305073885 
-6.992553139117939 
-6.044305831198171 
-4.152306507314756 
-2.3303305050377743 
-0.6899659897907523 
0.6925121414781017 
1.7831672952181257 
2.5734317047719775 
3.0646740411924713 
3.259507982979336 
3.1585349262198132 
3.034023405944922 
-6.801667043640836 
-5.874223345174429 
-4.06555132858722 
-2.3665923820857246 
-0.8230800389778223 
0.5146509996416921 
1.6124081797596594 
2.452467867395794 
3.027069520843278 
3.331509539362272 
3.3590061872083785 
3.3024126385725037 
-6.639488387935442 
-5.725471474433765 
-3.9754637636764834 
-2.371645261343724 
-0.913770314195165 
0.3738344357818623 
1.4640499640072149 
2.336409400775412 
2.978032885589915 
3.380079901668948 
3.5328712447006634 
3.545537640019381 
-6.479753970398836 
-5.580613095819782 
-3.8822281914567798 
-2.357256590050018 
-0.9746570468979281 
0.2630501232977549 
1.3379624064472053 
2.2302209229295986 
2.924512333321055 
3.4101382437316494 
3.677400066982301 
3.7551459582144653 
-6.29776563830074 
-5.42068056565813 
-3.779718562239461 
-2.328792870419809 
-1.0162802185475055 
0.17257939106186132 
1.2285874588687973 
2.133162900595086 
2.8692238740586973 
3.4249997942293016 
3.7920262688098445 
3.9273747039833853 
-6.069628367835479 
-5.225289442561007 
-3.6566001519539477 
-2.2854639620158945 
-1.0457640808733666 
0.09187421805412578 
1.1262008493117732 
2.0390171742000396 
2.8100225795009792 
3.425212397992672 
3.877000083516369 
4.061389419828263 
-5.772549616353032 
-4.972829600916999 
-3.4963250632199205 
-2.219702884062992 
-1.065297202583763 
0.011208286784653687 
1.0177866717807822 
1.936008666781841 
2.7391882108216534 
3.407471370869716 
3.9318868742680593 
4.157617686868152 
-5.386488969428574 
-4.6411125608190495 
-3.2763677054784925 
-2.1153814720841937 
-1.0694370452081694 
-0.07584252787200951 
0.8879468463636073 
1.8059263061088857 
2.6417492717325874 
3.3628835932502015 
3.9536792190742878 
4.215705526371398 
-4.897089902787194 
-4.208806323998786 
-2.9672829366286 
-1.945155874621461 
-1.0405901313327277 
-0.16721536344854485 
0.7215998506046707 
1.6226738021601381 
2.4914281097077113 
3.2730994665138886 
3.9338127928488955 
4.231654054402236 
-4.299359071061387 
-3.6565610522475005 
-2.532275022978709 
-1.6693823304129571 
-0.9438945346885438 
-0.2427287723126515 
0.5134658893322146 
1.3535985677140436 
2.2434242195439387 
3.1007031553000646 
3.8512718553556198 
4.193366605985656 
-3.587467042731214 
-2.9639583928301763 
-1.9308350751147554 
-1.2419301291083888 
-0.7306229704468811 
-0.2543096635928224 
0.29166312800742894 
0.9796060151871131 
1.8290492423194509 
2.7684330642386747 
3.6552212176940477 
4.065802254398568 
-2.721614941877332 
-2.0723714906421544 
-1.1192082984573213 
-0.6499802747392844 
-0.3701917953240838 
-0.13866238228475403 
0.14252551199613492 
0.5630758843536334 
1.2095736563331851 
2.1278653830385457 
3.20649542617604 
3.756919820118606 
-1.178603017924352 
-0.7665443129287972 
-0.20895244748189293 
-0.00822152362081982 
0.06988438976570241 
0.11147338925762332 
0.16840164689519965 
0.29662597858625245 
0.5792985473648238 
1.1487286077098333 
2.1733895744983194 
2.8213161261517676 
-0.1154159805934531 
0.031907245068158924 
0.23707201961493435 
0.29906474295269686 
0.2919059800612527 
0.2641386698304724 
0.23571451826159495 
0.23306818446002248 
0.309577404395707 
0.5910397281819296 
1.4536160724021436 
2.1019188678912517 
</DataArray>
<DataArray type="Float64" Name="Nodal S_yy" NumberOfComponents="1" format="ascii" >
-3.870807789457398 
-2.991491173005456 
-1.61653581821174 
-0.6359414586768185 
0.2100157425868251 
0.8257138967132108 
1.229736728526742 
1.4349162444805983 
1.472874104344955 
1.3957017723075396 
1.273590861870962 
1.2107568851399413 
-2.290132659663581 
-2.1034704224961613 
-1.5435002294538755 
-0.77792867419688 
-0.05441553485750275 
0.5295161573898755 
0.9531173417943164 
1.219014054972992 
1.346867146883151 
1.3720479482062542 
1.3476116338084214 
1.3308699289332788 
-0.6051474714313663 
-0.94483511035965 
-1.2046480963695152 
-0.9018447915617508 
-0.42465192947730657 
0.06465484632582157 
0.4968116250760868 
0.8480211467866352 
1.1155075840563957 
1.3066774933733405 
1.4352675062411437 
1.4860787384934502 
-0.439983878713883 
-0.5659070716148791 
-0.7765706056219827 
-0.7762524925032402 
-0.5244089076142543 
-0.1614440557043163 
0.23051366107943055 
0.6074376496734305 
0.9483674988516482 
1.2419786715751353 
1.4725191054797757 
1.5692322227830913 
-0.3573506419919961 
-0.4049437695365877 
-0.51417730781035 
-0.5624217067428511 
-0.44888061525131173 
-0.19562221594901807 
0.1370250426119005 
0.5045028712295035 
0.8771829729392628 
1.2335682026139967 
1.5494808168675926 
1.6937444134921056 
-0.32452427073106 
-0.3238381457036653 
-0.34785609831590103 
-0.36392071581039864 
-0.2884613535727928 
-0.10009248867587003 
0.18194616831976665 
0.5270535171751514 
0.9082975874511772 
1.3029255764755596 
1.687650327517562 
1.8743735051470105 
-0.3066313237124851 
-0.2769092599346522 
-0.23356925076773577 
-0.1930423955449742 
-0.10274068648143614 
0.06778062988338496 
0.3221464018103794 
0.6482888675872014 
1.0287169162761396 
1.4456890814457712 
1.8813330412750342 
2.1015276736388153 
-0.29367601938506105 
-0.24337099358242775 
-0.14616694797780022 
-0.04564675808726444 
0.08362027910703565 
0.2669190984573095 
0.5171361056472598 
0.8350343546854271 
1.2137362020399274 
1.6430253067964544 
2.1119054603895973 
2.354864162487981 
-0.28061811961165345 
-0.21338085244981586 
-0.07103316234961307 
0.08532414203880404 
0.2614755482862958 
0.47351260978331244 
0.7357399824705708 
1.0559190482221608 
1.4352238848203331 
1.8704841187926882 
2.35690869375966 
2.612293641588542 
-0.26504906758137114 
-0.1820763113901064 
9.737610291900983e-05 
0.2061625719564537 
0.4288274469252302 
0.6752064409725538 
0.9574577820400918 
1.286305179269748 
1.6680465779074383 
2.104674258530396 
2.595874460730893 
2.855013941153683 
-0.24572796050411438 
-0.14721267996074378 
0.07155418201193693 
0.32145315952123316 
0.5867328697392182 
0.8669023577901107 
1.170754353280581 
1.509838628287866 
1.8935444446607756 
2.3272785557412656 
2.8134325562191353 
3.069788808559717 
-0.2221608651796943 
-0.10818293639320545 
0.14488026437478196 
0.43380900451645393 
0.7371539539693864 
1.0478535968844311 
1.3709371703892752 
1.7179088369710396 
2.1004437961173523 
2.526521073868067 
3.000140078987033 
3.249130510802392 
-0.1945213792187439 
-0.06572974113776336 
0.21927610180569626 
0.5436653383088627 
0.8815757775059082 
1.21951744317446 
1.5580969324552993 
1.9082840598433592 
2.2841996591723053 
2.6968152194238226 
3.151715618653131 
3.3901021607404536 
-0.16379094327009494 
-0.021809851993281733 
0.2920404199792434 
0.649419320716177 
1.0201926834613793 
1.3837917932919854 
1.7350879698295816 
2.08339019833224 
2.4456733231463104 
2.837423225860196 
3.2673516236456392 
3.4924717244395795 
-0.13115160184920283 
0.021282561619884014 
0.3606361573578583 
0.7499168882229779 
1.1530100724016599 
1.5422393064518833 
1.905487303628401 
2.248207645898584 
2.589219689782066 
2.9508388426425807 
3.3475896828378273 
3.555763720494603 
-0.09916136794181152 
0.06476158630407906 
0.4317405370828946 
0.8546589177250622 
1.2889012138634626 
1.7001689820744665 
2.0726218439726396 
2.4071114507628146 
2.7202803068881423 
3.039215695410327 
3.3915085984968862 
3.5791103681127416 
-0.049127621216943376 
0.13042099431594578 
0.5477629907967388 
1.0231302942513931 
1.4789986048797752 
1.8898808026066223 
2.248627936523319 
2.558714051164566 
2.8355383037434434 
3.104177190902645 
3.388301016413485 
3.5366834170142356 
-0.024593528261773065 
0.2986267719124308 
0.9213528225706364 
1.4664563301450904 
1.904891275871584 
2.24749501145751 
2.513744521691142 
2.722746260865195 
2.898080444138667 
3.081592385932434 
3.326614914396016 
3.4709409084489966 
0.8963475387644444 
1.3973704907071105 
2.214137653415446 
2.7206509114415685 
3.0133157148990453 
3.153583037173224 
3.1836739894978114 
3.1315292106873667 
3.0169719260219683 
2.8678816256704276 
2.757505163170465 
2.7255258814145207 
1.8274802504551402 
2.3711688434364335 
3.211307640487353 
3.6442072122708007 
3.8150843412834647 
3.8117824588969227 
3.681338733708433 
3.449524298479008 
3.125499100442709 
2.70371414821097 
2.2343066458422634 
2.001759251395317 
</DataArray>
<DataArray type="Float64" Name="Nodal S_xy" NumberOfComponents="1" format="ascii" >
1.2228294940065416 
0.6921980652585272 
0.10075792441023843 
0.1424352314165786 
0.39735198070619365 
0.7182373808333455 
1.046911058454533 
1.3399389804514787 
1.5594322867445176 
1.6697482307925036 
1.642149507125196 
1.590919231383031 
0.44211607490927907 
0.42755209922549225 
0.35664432058883533 
0.3688132511806935 
0.5585718167768021 
0.820850064981148 
1.1004569921920349 
1.3572784076506519 
1.5566767514419066 
1.66623966302563 
1.662905284248443 
1.6311594332780914 
-0.5941187447601092 
-0.04706745239462039 
0.5819534268846287 
0.7150194591315765 
0.8477267197935783 
1.0291096205482155 
1.2326748911217265 
1.4305446496577412 
1.5955876074193853 
1.7006378485085714 
1.7241922723193808 
1.7136628394143218 
-0.9658783128824932 
-0.39308510285476117 
0.4521995509662201 
0.8419546959550478 
1.0466225865810057 
1.2207031897671605 
1.3941748722367913 
1.561373151831342 
1.7060146864257242 
1.8057498453316827 
1.8331648216654128 
1.8250831628068716 
-1.1375609714614159 
-0.6169220401787993 
0.25311156765578924 
0.8045707097306685 
1.1340616291958385 
1.3611237627787134 
1.548677317635192 
1.7149275188347253 
1.8571589764432404 
1.960141432483712 
1.996565002491916 
1.9939052480844965 
-1.2182768132484267 
-0.7590875757394124 
0.07167527483128726 
0.7011659479708188 
1.1350917135906085 
1.4403389641607243 
1.673742848695428 
1.8657024356625032 
2.0251284889106316 
2.1455590195801237 
2.2057111944246595 
2.217064644387288 
-1.2518253471888192 
-0.8434862058083439 
-0.06736226765923164 
0.5885733478129666 
1.091931170163321 
1.470302274682651 
1.7627980322549757 
1.9985162921475332 
2.192114983345055 
2.344694103508066 
2.4435354810665557 
2.477009826466786 
-1.2569083420702563 
-0.8844891298619697 
-0.15786432930240896 
0.49649940450632146 
1.0380585941142615 
1.4721691493987281 
1.821455118727089 
2.108008130526191 
2.3464621170802777 
2.5422752239009543 
2.6905378722932376 
2.751464846814208 
-1.240985484098906 
-0.8903138338194987 
-0.2004671204030983 
0.43966119498154854 
0.9961167687928085 
1.4658786449709105 
1.8609001859064733 
2.19584505750702 
2.482239199960153 
2.7265434076192903 
2.9289987656521332 
3.0193611731994934 
-1.2062178495096456 
-0.8653382996682162 
-0.19779799119367708 
0.42455919923667096 
0.9801773358092742 
1.466970823985237 
1.8927659850721683 
2.267162569719014 
2.5978194972139326 
2.889797657674836 
3.1453801320334676 
3.264168166465602 
-1.152330730866977 
-0.811671913342717 
-0.15266405806136427 
0.4535516168711208 
0.9985445762411491 
1.4865194201943743 
1.926912740316554 
2.3278779103476808 
2.694094070909999 
3.0279306601065983 
3.331008301510016 
3.475045142611615 
-1.0782549303527182 
-0.7303644279933215 
-0.06750901587283986 
0.5273061408739773 
1.0563918911280272 
1.5324883000039702 
1.9711759517133687 
2.3833884992258985 
2.772976399322464 
3.1393553305168442 
3.4814349363481965 
3.646337709670978 
-0.9833897739549698 
-0.6225354088082538 
0.055431562894654826 
0.646194294904676 
1.1580344120136723 
1.6118392252658609 
2.032520171585568 
2.438524555472214 
2.8364718101949062 
3.223702146188848 
3.5949631683097967 
3.776002849995536 
-0.8688990120745127 
-0.49055650910846327 
0.21354556529157953 
0.8107885298432846 
1.3085566318676194 
1.7329491351374398 
2.119417385939972 
2.4988822667578154 
2.886507666302423 
3.2805055103863605 
3.6706804969310163 
3.863378614557834 
-0.7389876092833703 
-0.338907038206234 
0.4034395552914939 
1.021481506034898 
1.5139234280156977 
1.9072060230592534 
2.2450553604932177 
2.5740539787634136 
2.9263111561236634 
3.308198833417852 
3.705992907890865 
3.906390600208141 
-0.6005098613146509 
-0.17249794640597613 
0.6228781556042803 
1.2778282934615617 
1.7777626623919902 
2.146007606467646 
2.4284222148098644 
2.6828888930495465 
2.9649357652342396 
3.3048472735770185 
3.6939203340397695 
3.897180162546047 
-0.4546299244228292 
0.015239366892364353 
0.8836802697470314 
1.5814876427917606 
2.091727565811553 
2.444147056034752 
2.6803315774935754 
2.853177570679132 
3.0290493709087603 
3.2742307524798964 
3.6199919051448806 
3.818366676032961 
-0.24903973752031994 
0.30239795956052296 
1.2560961505441819 
1.94013435314342 
2.416300143527857 
2.7393794156097537 
2.9464539610638374 
3.0696752092208004 
3.152658525776136 
3.2637953525349 
3.4793097180052976 
3.6218326801755065 
0.5543351923879248 
1.060587975012299 
1.8578753128390413 
2.3345131250102593 
2.6478646978934557 
2.866424632912591 
3.019907212445208 
3.1213423040825328 
3.182159032092538 
3.233439524477314 
3.3669380878187196 
3.471208755575855 
1.227580274835087 
1.63298282964313 
2.231019059873211 
2.534441393611937 
2.722147164973449 
2.8596254027043755 
2.9703353760584053 
3.0608395281479375 
3.1314449061244476 
3.1925358953161043 
3.3404317115547215 
3.45748661315659 
</DataArray>
</PointData>
<CellData>
</CellData>
<Points>
<DataArray type="Float64" Name="Points" NumberOfComponents="3" format="ascii">
0.0 50.0 0.0
0.0 45.4545441 0.0
0.0 40.9090919 0.0
0.0 36.363636 0.0
0.0 31.818182 0.0
0.0 27.272728 0.0
0.0 22.727272 0.0
0.0 18.181818 0.0
0.0 13.636364 0.0
0.0 9.090909 0.0
0.0 4.5454545 0.0
0.0 0.0 0.0
2.52631569 50.5263176 0.0
2.52631569 46.1435394 0.0
2.52631569 41.7607651 0.0
2.52631569 37.3779907 0.0
2.52631569 32.9952164 0.0
2.52631569 28.6124401 0.0
2.52631569 24.2296658 0.0
2.52631569 19.8468895 0.0
2.52631569 15.4641151 0.0
2.52631569 11.0813398 0.0
2.52631569 6.69856453 0.0
2.52631569 2.31578946 0.0
5.05263138 51.0526314 0.0
5.05263138 46.8325348 0.0
5.05263138 42.612442 0.0
5.05263138 38.3923454 0.0
5.05263138 34.1722488 0.0
5.05263138 29.9521523 0.0
5.05263138 25.7320576 0.0
5.05263138 21.511961 0.0
5.05263138 17.2918663 0.0
5.05263138 13.0717707 0.0
5.05263138 8.85167503 0.0
5.05263138 4.63157892 0.0
7.57894754 51.578949 0.0
7.57894754 47.5215302 0.0
7.57894754 43.4641151 0.0
7.57894754 39.4067001 0.0
7.57894754 35.3492813 0.0
7.57894754 31.2918663 0.0
7.57894754 27.2344494 0.0
7.57894754 23.1770344 0.0
7.57894754 19.1196175 0.0
7.57894754 15.0622005 0.0
7.57894754 11.0047846 0.0
7.57894754 6.94736862 0.0
10.1052628 52.1052628 0.0
10.1052628 48.2105255 0.0
10.1052628 44.3157883 0.0
10.1052628 40.421051 0.0
10.1052628 36.5263176 0.0
10.1052628 32.6315804 0.0
10.1052628 28.7368412 0.0
10.1052628 24.8421059 0.0
10.1052628 20.9473686 0.0
10.1052628 17.0526314 0.0
10.1052628 13.1578951 0.0
10.1052628 9.26315784 0.0
12.6315794 52.6315804 0.0
12.6315794 48.8995209 0.0
12.6315794 45.1674652 0.0
12.6315794 41.4354057 0.0
12.6315794 37.7033501 0.0
12.6315794 33.9712906 0.0
12.6315794 30.2392349 0.0
12.6315794 26.5071774 0.0
12.6315794 22.7751198 0.0
12.6315794 19.0430622 0.0
12.6315794 15.3110046 0.0
12.6315794 11.5789471 0.0
15.1578951 53.1578941 0.0
15.1578951 49.5885162 0.0
15.1578951 46.0191383 0.0
15.1578951 42.4497604 0.0
15.1578951 38.8803825 0.0
15.1578951 35.3110046 0.0
15.1578951 31.7416267 0.0
15.1578951 28.1722488 0.0
15.1578951 24.6028709 0.0
15.1578951 21.033493 0.0
15.1578951 17.4641151 0.0
15.1578951 13.8947372 0.0
17.6842098 53.6842117 0.0
17.6842098 50.2775116 0.0
17.6842098 46.8708153 0.0
17.6842098 43.4641151 0.0
17.6842098 40.057415 0.0
17.6842098 36.6507187 0.0
17.6842098 33.2440186 0.0
17.6842098 29.8373203 0.0
17.6842098 26.4306221 0.0
17.6842098 23.0239239 0.0
17.6842098 19.6172256 0.0
17.6842098 16.2105255 0.0
20.2105255 54.2105255 0.0
20.2105255 50.966507 0.0
20.2105255 47.7224884 0.0
20.2105255 44.4784698 0.0
20.2105255 41.2344513 0.0
20.2105255 37.9904289 0.0
20.2105255 34.7464104 0.0
20.2105255 31.5023918 0.0
20.2105255 28.2583733 0.0
20.2105255 25.0143547 0.0
20.2105255 21.7703342 0.0
20.2105255 18.5263157 0.0
22.7368412 54.7368431 0.0
22.7368412 51.6555023 0.0
22.7368412 48.5741615 0.0
22.7368412 45.4928246 0.0
22.7368412 42.4114838 0.0
22.7368412 39.330143 0.0
22.7368412 36.2488022 0.0
22.7368412 33.1674652 0.0
22.7368412 30.0861244 0.0
22.7368412 27.0047855 0.0
22.7368412 23.9234447 0.0
22.7368412 20.8421059 0.0
25.2631588 55.2631569 0.0
25.2631588 52.3444977 0.0
25.2631588 49.4258385 0.0
25.2631588 46.5071754 0.0
25.2631588 43.5885162 0.0
25.2631588 40.669857 0.0
25.2631588 37.7511978 0.0
25.2631588 34.8325348 0.0
25.2631588 31.9138756 0.0
25.2631588 28.9952145 0.0
25.2631588 26.0765553 0.0
25.2631588 23.1578941 0.0
27.7894745 55.7894745 0.0
27.7894745 53.033493 0.0
27.7894745 50.2775116 0.0
27.7894745 47.5215302 0.0
27.7894745 44.7655487 0.0
27.7894745 42.0095711 0.0
27.7894745 39.2535896 0.0
27.7894745 36.4976082 0.0
27.7894745 33.7416267 0.0
27.7894745 30.9856453 0.0
27.7894745 28.2296658 0.0
27.7894745 25.4736843 0.0
30.3157902 56.3157883 0.0
30.3157902 53.7224884 0.0
30.3157902 51.1291847 0.0
30.3157902 48.5358849 0.0
30.3157902 45.942585 0.0
30.3157902 43.3492813 0.0
30.3157902 40.7559814 0.0
30.3157902 38.1626778 0.0
30.3157902 35.5693779 0.0
30.3157902 32.976078 0.0
30.3157902 30.3827744 0.0
30.3157902 27.7894745 0.0
32.8421059 56.8421059 0.0
32.8421059 54.4114838 0.0
32.8421059 51.9808617 0.0
32.8421059 49.5502396 0.0
32.8421059 47.1196175 0.0
32.8421059 44.6889954 0.0
32.8421059 42.2583733 0.0
32.8421059 39.8277512 0.0
32.8421059 37.3971291 0.0
32.8421059 34.966507 0.0
32.8421059 32.5358849 0.0
32.8421059 30.1052628 0.0
35.3684196 57.3684196 0.0
35.3684196 55.1004791 0.0
35.3684196 52.8325348 0.0
35.3684196 50.5645943 0.0
35.3684196 48.2966499 0.0
35.3684196 46.0287094 0.0
35.3684196 43.7607651 0.0
35.3684196 41.4928246 0.0
35.3684196 39.2248802 0.0
35.3684196 36.9569397 0.0
35.3684196 34.6889954 0.0
35.3684196 32.421051 0.0
37.8947372 57.8947372 0.0
37.8947372 55.7894745 0.0
37.8947372 53.6842117 0.0
37.8947372 51.578949 0.0
37.8947372 49.4736824 0.0
37.8947372 47.3684196 0.0
37.8947372 45.2631569 0.0
37.8947372 43.1578941 0.0
37.8947372 41.0526314 0.0
37.8947372 38.9473686 0.0
37.8947372 36.8421059 0.0
37.8947372 34.7368431 0.0
40.421051 58.421051 0.0
40.421051 56.4784698 0.0