<?xml version="1.0"?>
<VTKFile type="UnstructuredGrid" version="0.1" byte_order="LittleEndian" compressor="vtkZLibDataCompressor">
<UnstructuredGrid>
<Piece NumberOfPoints="714" NumberOfCells="650">
<PointData>
<DataArray type="Float64" Name="displacement" NumberOfComponents="3" format="ascii" >
0.0 0.0  0.
0.0 0.0  0.
0.0 0.0  0.
0.0 0.0  0.
0.0 0.0  0.
0.0 0.0  0.
0.0 0.0  0.
0.0 0.0  0.
0.0 0.0  0.
0.0 0.0  0.
0.0 0.0  0.
0.0 0.0  0.
0.0 0.0  0.
0.0 0.0  0.
0.03947314205377956 -0.049373688094716074  0.
0.024495144134147308 -0.027788428619383104  0.
0.018879673369289696 -0.015684627946228574  0.
0.014176529574923206 -0.007922968307852411  0.
0.01013027063407041 -0.0027018788993428155  0.
0.0063588284322398814 0.0007546250475208572  0.
0.0027289030985840324 0.0028170476597617  0.
-0.0008579806316064033 0.003629775409979273  0.
-0.004484688987057716 0.0031777111459102823  0.
-0.008255010590805408 0.0012833021304312104  0.
-0.012307498896900245 -0.0024709201570219928  0.
-0.01707232605777131 -0.008927753326938672  0.
-0.022720925692527247 -0.020106341898913138  0.
-0.0383382688713083 -0.0412632589235286  0.
0.07661728675360031 -0.07390797119625192  0.
0.057356627403452896 -0.0542176100174655  0.
0.04323823428214064 -0.03732498320645782  0.
0.03248841309520761 -0.024927904723772716  0.
0.023136866906668708 -0.015993688247727348  0.
0.014568400869027163 -0.009866889109960173  0.
0.006378802176899445 -0.006156535133497225  0.
-0.0017027168176047835 -0.004701396477561143  0.
-0.009922788727782371 -0.005541478499599575  0.
-0.018563289128275654 -0.008927771213594718  0.
-0.028059938773042983 -0.015373705495431598  0.
-0.039057567605895856 -0.02572690367947346  0.
-0.05365889239584299 -0.04136413917778374  0.
-0.07404249446914485 -0.06052187384355166  0.
0.11144899875625454 -0.09970681709352679  0.
0.08924815072941095 -0.07978232348951071  0.
0.06967179077222259 -0.06233050975407289  0.
0.052777881773505196 -0.04801387755362102  0.
0.03775783560870414 -0.03708217861344565  0.
0.02382300840716947 -0.029293161000902845  0.
0.010458125427744673 -0.02445476529257728  0.
-0.0027593897773889324 -0.02248754993233906  0.
-0.01622387137420766 -0.023456073245771352  0.
-0.030381911528719732 -0.02757993362480459  0.
-0.04579831031025445 -0.03522508984401175  0.
-0.06336748186190012 -0.046866617882223786  0.
-0.08410080656234928 -0.06248019610158177  0.
-0.10821069005100119 -0.08151690433449145  0.
0.14596441304294233 -0.1287683918265708  0.
0.11999326466082687 -0.10885348990401252  0.
0.09568491742487893 -0.0912294402268163  0.
0.07339335897499338 -0.07637166664289213  0.
0.05279208320032826 -0.06455315866610958  0.
0.03334903438289788 -0.05587265259708545  0.
0.014532471742845759 -0.05032336418185619  0.
-0.00414147909287158 -0.04792202901871665  0.
-0.023153618075144437 -0.04874837351355062  0.
-0.04302148324083468 -0.05295282451150469  0.
-0.06435358641086712 -0.06073068687516818  0.
-0.0878164191140012 -0.07218952485051064  0.
-0.11394085736764821 -0.08725823209143761  0.
-0.14253572616913462 -0.10567432757961898  0.
0.1798957693269335 -0.16268832879405892  0.
0.14965810793406492 -0.14268488181956548  0.
0.12073806877359655 -0.12504197325950708  0.
0.09338967253301927 -0.11000565484217197  0.
0.06746384703688539 -0.09783292809514026  0.
0.04258189752495968 -0.08868961105672728  0.
0.01828274325564647 -0.08267791638486574  0.
-0.005918676037203195 -0.07987430387800067  0.
-0.03052134903744015 -0.08036353219154473  0.
-0.056051473186914134 -0.08424252443682019  0.
-0.08305752399971962 -0.09159098117076882  0.
-0.11205976453744611 -0.10243188632281211  0.
-0.14339195883320954 -0.1167025056223421  0.
-0.17697066161985125 -0.13440564420180118  0.
0.21300853846657344 -0.20196945771367122  0.
0.17822174956750778 -0.18185365464207923  0.
0.14466001146776988 -0.16416514917108888  0.
0.11241316176679467 -0.14904847113118033  0.
0.08135446708176697 -0.13669306025154507  0.
0.05118330904465368 -0.1272680197309131  0.
0.021498064170416973 -0.12090242853611909  0.
-0.008153387184486945 -0.1176967576859867  0.
-0.038251155425311524 -0.1177339260217007  0.
-0.06929080946040417 -0.12108067188166437  0.
-0.10176370236210225 -0.12777828140578923  0.
-0.13610740200669855 -0.13783168178767843  0.
-0.1726243121591558 -0.1512370600480095  0.
-0.21141935224661268 -0.16808355306060146  0.
0.24506474002008025 -0.24678440923400133  0.
0.20561581964935974 -0.2265248542114548  0.
0.16738182448610384 -0.20874221028976253  0.
0.13031950616669594 -0.19352577073632954  0.
0.09427282321360274 -0.18101354228115352  0.
0.05896817911464293 -0.17134742583924698  0.
0.02404478186874403 -0.16465116999831556  0.
-0.01091316954959242 -0.16102462584168192  0.
-0.04635247190754348 -0.16054510330638294  0.
-0.0827320260082367 -0.16326774295488386  0.
-0.1204997485248307 -0.16922480492049718  0.
-0.16005978113432318 -0.17843304963599577  0.
-0.2017380121478275 -0.19092329509454567  0.
-0.24578772065380955 -0.20680415207885733  0.
0.27588486533090373 -0.29712695853751453  0.
0.23175701323878217 -0.27669210448823095  0.
0.18885566346423724 -0.25876025264082597  0.
0.1470444105428366 -0.24339229526592787  0.
0.10612857984690141 -0.23068801159934735  0.
0.06583769462745896 -0.22075952742613786  0.
0.02583454493478407 -0.21371218289230898  0.
-0.014266461912639321 -0.20963514633376568  0.
-0.05488049363805693 -0.20859818242443431  0.
-0.09643441565536646 -0.21065159980252032  0.
-0.13934817750988454 -0.21582960133414353  0.
-0.18401562766812482 -0.22416089997723648  0.
-0.23079487484077205 -0.23569210379521097  0.
-0.28003207403303626 -0.25052047718400733  0.
0.30533371248954455 -0.3529088554127051  0.
0.25656644395724254 -0.3322651131581435  0.
0.20903733820375836 -0.31413197854596253  0.
0.16254896779815944 -0.29855388291496393  0.
0.11687312515782732 -0.285603815528092  0.
0.07173324060551681 -0.2753676916373683  0.
0.026804359837675363 -0.2679305611390159  0.
-0.01827758002631132 -0.2633676098023193  0.
-0.0639028389401974 -0.261739995772576  0.
-0.1104743004513305 -0.26309456932582304  0.
-0.15839448329503442 -0.26746768004056726  0.
-0.2080556351038112 -0.274894435978949  0.
-0.259840442052764 -0.28542366251842644  0.
-0.3141450213030137 -0.29913300117032054  0.
0.33331020215119345 -0.41400133327032795  0.
0.27997515917884663 -0.39311477338941125  0.
0.22788434837484217 -0.3747328420475791  0.
0.17680145998975053 -0.3588891952534007  0.
0.12647298609930288 -0.3456375767146172  0.
0.07661408508358773 -0.33504280158537464  0.
0.02690537003881425 -0.32717139380133564  0.
-0.023003116923849463 -0.32208449580418924  0.
-0.0734839468524186 -0.31983407281312987  0.
-0.12492319088590453 -0.32046245933424394  0.
-0.17771231292630915 -0.3240053511115962  0.
-0.23224361116496978 -0.33049824070869244  0.
-0.2889141086219875 -0.33998497834468633  0.
-0.34814249782041523 -0.3525235578042447  0.
0.3597374923443946 -0.48025591040591126  0.
0.30192485858610874 -0.4590935003180787  0.
0.24535665467125387 -0.4404202052278413  0.
0.18977213165678045 -0.42426148414316317  0.
0.1348999094877102 -0.41065670903665685  0.
0.08044752679881649 -0.3996539541564562  0.
0.026097604869715234 -0.3913038910363529  0.
-0.0284910811374374 -0.38565462528912803  0.
-0.08367918997052207 -0.38274865726690566  0.
-0.13984129985006052 -0.38262229318283086  0.
-0.19736131493134842 -0.38530752947325503  0.
-0.25663071710277435 -0.390835951145173  0.
-0.3180525985218284 -0.39924310362377574  0.
-0.38205262620974845 -0.4105699820632518  0.
0.38455635317432835 -0.5515148011580926  0.
0.32236706449515906 -0.5300453942031219  0.
0.2614178384023426 -0.5110429178269363  0.
0.20143266309781085 -0.4945258182794353  0.
0.14212799752194932 -0.4805221359070998  0.
0.0832052915959569 -0.4690664718017544  0.
0.024347490188503962 -0.4601960756696662  0.
-0.03478137827869441 -0.45394723130534104  0.
-0.09453410786139732 -0.45035294195889075  0.
-0.15527733382835787 -0.4494422542865837  0.
-0.21738923672187335 -0.45124120565426595  0.
-0.2812591389152441 -0.4557748818560637  0.
-0.3472907313061415 -0.4630693547323074  0.
-0.415908611013656 -0.47315145782672907  0.
0.40772061310329577 -0.6276160174604843  0.
0.34126189781623056 -0.6058109967643539  0.
0.2760358025220668 -0.5864459925935017  0.
0.2117568390658901 -0.5695329869256959  0.
0.14813340601304062 -0.5550905814437174  0.
0.08486246535015196 -0.5431421965943866  0.
0.02162665397352098 -0.5337135769850787  0.
-0.041906815696065546 -0.5268302911270399  0.
-0.10608546959636826 -0.5225159956516313  0.
-0.17127022669498645 -0.5207917240472516  0.
-0.23783450432892256 -0.5216761786220264  0.
-0.306164401215235 -0.5251866192191785  0.
-0.3766610452504494 -0.5313395073781377  0.
-0.4497442916490185 -0.5401497815698255  0.
0.4291943149549172 -0.7083964313612799  0.
0.35857707831418 -0.6862301017540567  0.
0.28918320075999754 -0.6664734305468547  0.
0.22072138041840705 -0.6491322058752901  0.
0.1528948121972407 -0.6342167801289136  0.
0.08539735989542038 -0.6217409645504643  0.
0.017911271610385963 -0.6117204263439452  0.
-0.04989418152090275 -0.604170947570952  0.
-0.11836281525062911 -0.5991071171569399  0.
-0.1878511725762885 -0.5965416291002792  0.
-0.25872843974497084 -0.5964851752236757  0.
-0.3313768566645431 -0.5989466624612027  0.
-0.40619339729214027 -0.6039332342093094  0.
-0.4835918214309361 -0.61144953647163  0.
0.44894961527943883 -0.7936926931432233  0.
0.37428690307678053 -0.7711425039973133  0.
0.30083743373147714 -0.7509690209725227  0.
0.22830643304878104 -0.733171992395118  0.
0.15639386136084615 -0.7177542902889937  0.
0.08479160306848744 -0.7047211956622421  0.
0.013181697165628318 -0.6940793487105384  0.
-0.05876506879542515 -0.6858355098321581  0.
-0.13138967992101336 -0.679995558452218  0.
-0.205045090198418 -0.6765638320631606  0.
-0.2800965857345355 -0.6755428072385735  0.
-0.35692226870339144 -0.6769329692765178  0.
-0.4359143123995231 -0.6807325702893302  0.
-0.5174801447287382 -0.6869370370443735  0.
0.4669655797120952 -0.8833423936132739  0.
0.3883716268444321 -0.8603890461385733  0.
0.31098065263635094 -0.8397774265703496  0.
0.2344959291080036 -0.821501354912922  0.
0.15861553904042316 -0.8055567435921683  0.
0.0830302562571413 -0.7919411016233956  0.
0.007422190356047371 -0.7806528257009502  0.
-0.06853656176183155 -0.7716902892271583  0.
-0.14518461964191937 -0.7650510597799919  0.
-0.2228718047495542 -0.7607312963925409  0.
-0.3019597379761598 -0.758725339342208  0.
-0.3828223380333618 -0.7590254232638985  0.
-0.46584683921374365 -0.761621347971297  0.
-0.5514345637975713 -0.7665000362991611  0.
0.483227236449056 -0.977184455532268  0.
0.40081687106795477 -0.9538119373762473  0.
0.3195995843674963 -0.9327445313732834  0.
0.2392776946003285 -0.9139702300270377  0.
0.1595483466896034 -0.8974783625362823  0.
0.08010186589713368 -0.8832592205653902  0.
0.0006207281414714231 -0.8713035597582215  0.
-0.07922168965998712 -0.8616019028617162  0.
-0.15976186712678958 -0.8541439139755644  0.
-0.24134675792179572 -0.8489178600730862  0.
-0.3243345007970851 -0.8459101788569168  0.
-0.409094911899807 -0.8451051385723554  0.
-0.4960103865738343 -0.846484497602979  0.
-0.5854765038463094 -0.8500271752271149  0.
0.4977248863013972 -1.0750593042102676  0.
0.4116131476653312 -1.0512548782452993  0.
0.3266853222495592 -1.0297175827687093  0.
0.24264344027990767 -1.0104296872928533  0.
0.1591843637740259 -0.9933742309128114  0.
0.07599846794982461 -0.9785347148872905  0.
-0.007231133556309846 -0.9658947352282199  0.
-0.09082972947322196 -0.9554374266305813  0.
-0.175131754267418 -0.9471449504421025  0.
-0.26048144899530873 -0.9409980186293663  0.
-0.3472336187466313 -0.9369754747885848  0.
-0.43575411113987683 -0.9350539509193415  0.
-0.5264206690834875 -0.9352075423261345  0.
-0.6196234826136757 -0.9374075483432305  0.
0.5104536472248739 -1.1768094975574834  0.
0.420755519920458 -1.1525636559242982  0.
0.33223313859870535 -1.1305457929160012  0.
0.24458869425774818 -1.1107325682196372  0.
0.15751922433960905 -1.0931009759356278  0.
0.07071552587535643 -1.0776280737403983  0.
-0.016138418955419415 -1.0642906982579488  0.
-0.1033664794371939 -1.053065002847141  0.
-0.19130107281089598 -1.043926029081821  0.
-0.28028382059067414 -1.0368472869384235  0.
-0.3706663152069808 -1.0318003634577901  0.
-0.46281057957125404 -1.028754597437566  0.
-0.5570899013392024 -1.0276767744667323  0.
-0.6538893742627723 -1.0285309041920654  0.
0.5214129428843863 -1.2822791376753722  0.
0.42824319655878706 -1.2575855396180535  0.
0.3362422161285467 -1.2350797425320694  0.
0.24511265579930785 -1.214732918702208  0.
0.15455204926790314 -1.1965162353115881  0.
0.06425188989307823 -1.180400602588958  0.
-0.026102784966962837 -1.1663564428381479  0.
-0.11683433709894803 -1.1543532918696247  0.
-0.20827316377812077 -1.1443594325365354  0.
-0.30075832496204435 -1.1363415230799128  0.
-0.39463829826899866 -1.1302642367447044  0.
-0.4902714141061094 -1.1260899606172035  0.
-0.5880266803343499 -1.12377850749577  0.
-0.6882843199670599 -1.1232869090615163  0.
0.5306062186848802 -1.391314239951932  0.
0.43407929079987095 -1.3661696344649217  0.
0.3387154689287969 -1.3431717338458677  0.
0.24421807173356977 -1.3222863555230184  0.
0.15028535290581196 -1.3034790422302858  0.
0.05660970198652271 -1.2867148202222953  0.
-0.03712264350498599 -1.2719580042110485  0.
-0.13123246007810446 -1.259171842851362  0.
-0.22604811128259716 -1.2483181989285932  0.
-0.32190613402544066 -1.2393572176662548  0.
-0.41915196985561676 -1.2322469953394466  0.
-0.5181403697030522 -1.226943301919226  0.
-0.6192362064015572 -1.2233993053713372  0.
-0.722815001655029 -1.221565368039717  0.
0.5380406816882143 -1.5037633163422803  0.
0.4382705852320421 -1.4781674502968365  0.
0.3396593422458422 -1.4546763574022132  0.
0.2419110706462843 -1.4332506402883107  0.
0.1447248973029673 -1.413850410531571  0.
0.04779425070658956 -1.3964350522411455  0.
-0.049193323148251845 -1.3809630519608593  0.
-0.14655695323330267 -1.3673916753691209  0.
-0.2446229548528318 -1.3556766830016458  0.
-0.3437253701544392 -1.3457720311728019  0.
-0.44420666862572267 -1.337629565736183  0.
-0.5464181155243443 -1.3311987660891489  0.
-0.6507205658999607 -1.3264264782372654  0.
-0.7574849663530242 -1.323256710839681  0.
0.5437269480774547 -1.6194759131792302  0.
0.4408272406701126 -1.5934314436416726  0.
0.3390836021343753 -1.5694490421253804  0.
0.2382010322455936 -1.5474842437154555  0.
0.13787963372257792 -1.5274919173349253  0.
0.03781397271669523 -1.509426032186197  0.
-0.062307019018091644 -1.4932395062844737  0.
-0.1628007773684768 -1.4788839059130994  0.
-0.26399155925673323 -1.466309188914072  0.
-0.3662109359659069 -1.4554634321531956  0.
-0.469798458581517 -1.4462925464418943  0.
-0.575101985125185 -1.438740039185609  0.
-0.6824784480659372 -1.4327467541895582  0.
-0.792294320813239 -1.4282506660264842  0.
0.5476789363641839 -1.7383046230919643  0.
0.4417626598591329 -1.7118170114418092  0.
0.3370011665949978 -1.6873480383623285  0.
0.23310038881454637 -1.6648483237319298  0.
0.12976146961108723 -1.644267678560406  0.
0.026680177748768904 -1.6255548740831893  0.
-0.07645311772646325 -1.6086575046511753  0.
-0.1799541300241125 -1.5935217043941015  0.
-0.2841450543267819 -1.5800919124186563  0.
-0.3893550143258727 -1.568310622130185  0.
-0.49592069017190593 -1.5581181139753846  0.
-0.6041866003565248 -1.5494522346637547  0.
-0.7145058365723614 -1.542248143182596  0.
-0.8272404839930042 -1.5364381058320897  0.
0.5499135627768533 -1.8601028633855543  0.
0.44109324579865267 -1.8331802808484885  0.
0.33342794351133287 -1.8082322203320107  0.
0.2266245431315682 -1.785204542635955  0.
0.12038526455587222 -1.7640421841744531  0.
0.014407117770495916 -1.744688927825823  0.
-0.09161806048806925 -1.7270872780427182  0.
-0.1980042456604873 -1.7111781910916357  0.
-0.30507157564560183 -1.6969008582738707  0.
-0.41314675183103483 -1.684192473707626  0.
-0.5225636283062194 -1.6729879824213938  0.
-0.6336634458956957 -1.663219874818195  0.
-0.7467955293763224 -1.654817938952013  0.
-0.8623176564636379 -1.6477090592559007  0.
0.550450620178008 -1.984726809136215  0.
0.43883824768010204 -1.9573800294735964  0.
0.3283826402952621 -1.9319629964231557  0.
0.2187916435447255 -1.9084169715746229  0.
0.1097685692709952 -1.886682198329512  0.
0.0010116868380357178 -1.8666976753349283  0.
-0.10778568618509134 -1.8484010422551447  0.
-0.2169357852076717 -1.8317283213113926  0.
-0.32675670342631763 -1.8166137159657658  0.
-0.43757274904989624 -1.802989394898884  0.
-0.549714995374997 -1.7907852538703715  0.
-0.6635214655276538 -1.779928724743043  0.
-0.7793377888879077 -1.7703445350301563  0.
-0.8975175157967209 -1.761954512118403  0.
0.54931255767871 -2.112034581669937  0.
0.4350195678649308 -2.0842768767582633  0.
0.32188660293148497 -2.058403506574826  0.
0.20962245697132093 -2.034351294919262  0.
0.0979315320363347 -2.012055972834546  0.
-0.013486640950867343 -1.9914519546742389  0.
-0.12493726451827314 -1.9724722335594458  0.
-0.23673084302560005 -1.9550481328460738  0.
-0.34918344567957543 -1.939109118774549  0.
-0.46261702180621284 -1.9245825993507912  0.
-0.5773599119466469 -1.9113936991360694  0.
-0.6937469827838877 -1.8994650827077397  0.
-0.8121202414865887 -1.8887167223500292  0.
-0.9328290935582577 -1.8790657115265648  0.
0.5465243427181273 -2.241885194006198  0.
0.42966164571217985 -2.2137322355221762  0.
0.31396372909466 -2.1874175787215826  0.
0.19914031082251446 -2.1628737734153187  0.
0.08489686910932953 -2.1400322188483623  0.
-0.02906581388816584 -2.1188229419121063  0.
-0.14305147306001814 -2.0991745018174424  0.
-0.2573689005228129 -2.081013750853615  0.
-0.3723321702461948 -2.0642656604440104  0.
-0.4882609131784278 -2.0488531345081036  0.
-0.6054807897384965 -2.034696796970094  0.
-0.7243235751569964 -2.021714829728818  0.
-0.8451277309690591 -2.0098227494482352  0.
-0.9682386081581335 -1.998933231413778  0.
0.5421132646350132 -2.374140772138702  0.
0.4227912285301243 -2.3456105208504074  0.
0.30464019837354595 -2.318871928794644  0.
0.1873707842588244 -2.293853437290913  0.
0.07068951659044627 -2.270482293841891  0.
-0.04570159066331435 -2.24868433216612  0.
-0.1621048258997375 -2.2283838851738715  0.
-0.27882729633358905 -2.209503555056206  0.
-0.39618111743414486 -2.191964053130265  0.
-0.5144836493760402 -2.1756840281424648  0.
-0.6340579311706981 -2.160579866809981  0.
-0.7552327168681222 -2.146565546486903  0.
-0.8783430050851309 -2.133552421785861  0.
-1.0037301878095524 -2.121449060814281  0.
0.5361088464020644 -2.508663913348225  0.
0.41443733051391257 -2.479776522647909  0.
0.2939444880156442 -2.4526335457486352  0.
0.17434177958360278 -2.4271594836158688  0.
0.05533675751167904 -2.403277613551887  0.
-0.06336735782020494 -2.3809097684870286  0.
-0.1820714359127861 -2.359976257824038  0.
-0.3010809339149831 -2.3403956477443097  0.
-0.42070605378641535 -2.3220846164947053  0.
-0.541261940747055 -2.304957799149583  0.
-0.6630690785125493 -2.2889276019319316  0.
-0.7864532767443861 -2.273904069455874  0.
-0.9117461598070477 -2.259794680865386  0.
-1.0392852651989555 -2.2465041993702797  0.
0.5285426254135184 -2.645319949753465  0.
0.40463098135377723 -2.616097658430689  0.
0.28190708153534627 -2.5885719347728244  0.
0.16008319017111564 -2.5626635125031054  0.
0.0388678488901969 -2.538291882158961  0.
-0.08203454277145861 -2.515375066589283  0.
-0.20292346675837422 -2.4938295489454294  0.
-0.3241027717168744 -2.4735700655252724  0.
-0.445880800244795 -2.4545094800743414  0.
-0.5685705483219953 -2.4365586480220154  0.
-0.6924900193486778 -2.419626245738363  0.
-0.8179621624631359 -2.4036186514146527  0.
-0.9453153226517759 -2.388439749345816  0.
-1.074883294309892 -2.3739907914833114  0.
0.5194480345942372 -2.783975932752178  0.
0.39340512898786395 -2.7544429617450126  0.
0.26856039148694055 -2.7265581105007657  0.
0.1446268422677183 -2.7002385258914985  0.
0.02131398284259466 -2.675400099353302  0.
-0.10167263158776428 -2.651957232583648  0.
-0.22463112726069406 -2.629822772346783  0.
-0.3478637924626874 -2.608907820729436  0.
-0.4716771759962883 -2.589121635294821  0.
-0.5963822032442974 -2.570371518154236  0.
-0.7222944832039712 -2.5525626616622987  0.
-0.8497341955326201 -2.535598040320158  0.
-0.9790265056583585 -2.519378218759881  0.
-1.110501581108673 -2.503801223890878  0.
0.5088603615250584 -2.9244995169684804  0.
0.3807946137077437 -2.8946819699556845  0.
0.2539387475097579 -2.866463486561856  0.
0.12800649289346042 -2.8397578215512462  0.
0.0027082951652864368 -2.8144774627776985  0.
-0.12224914611873851 -2.7905333771953504  0.
-0.24716262967362956 -2.7678349537217897  0.
-0.3723329392375884 -2.7462898406226888  0.
-0.4980649116270619 -2.7258038840347143  0.
-0.6246674988100521 -2.7062810510729225  0.
-0.7524540155510224 -2.6876232937718925  0.
-0.8817419696807676 -2.6697304459475895  0.
-1.0128534472186432 -2.6525000252000237  0.
-1.1461151084394448 -2.6358271082798534  0.
0.4968164562616176 -3.066761352335218  0.
0.3668358494589524 -3.0366871024837856  0.
0.23807803355212087 -3.008162242550956  0.
0.11025741965003379 -2.9810973539597985  0.
-0.016914589970943625 -2.9554017282063034  0.
-0.14373013688334327 -2.930983078738534  0.
-0.27048471141935665 -2.9077474960555496  0.
-0.3974776597679137 -2.88559933085539  0.
-0.5250122142722196 -2.8644411932005625  0.
-0.653395479439909 -2.844173925208096  0.
-0.7829385960477409 -2.8246964853009433  0.
-0.9139565025810839 -2.805905837894153  0.
-1.0467682989197569 -2.787696729960485  0.
-1.1816972493454012 -2.769961555196769  0.
0.4833548487928177 -3.2106322116777832  0.
0.3515669749614444 -3.180330793332868  0.
0.22101586327702594 -3.151528459416564  0.
0.0914166131662891 -3.1241328794665586  0.
-0.037518344983308846 -3.0980503755468543  0.
-0.16607993228945317 -3.0731855779277417  0.
-0.29456233414997435 -3.0494414048778316  0.
-0.4232635457332427 -3.0267190263382595  0.
-0.5524853458367459 -3.004917962541813  0.
-0.6825331646307691 -2.9839361321904088  0.
-0.81371611953825 -2.9636697593222467  0.
-0.9463466838220629 -2.944013233131022  0.
-1.080741040925209 -2.924858821608854  0.
-1.2172191451653775 -2.906096493260365  0.
0.46851546509238057 -3.355985418987485  0.
0.3350275377590114 -3.325487895860827  0.
0.20279119823159084 -3.2964385041224475  0.
0.07152232079606613 -3.268742336512226  0.
-0.059065457626770165 -3.2423030009945872  0.
-0.18926169548083474 -3.217022191630647  0.
-0.3193592536990557 -3.192799722113262  0.
-0.4496548997068915 -3.1695336331186397  0.
-0.5804491847206067 -3.1471204562430057  0.
-0.712046116868087 -3.125455380054517  0.
-0.8447529895786471 -3.104432182428337  0.
-0.9788799113689032 -3.08394302083108  0.
-1.1147401665431285 -3.0638780153964977  0.
-1.2526504203787125 -3.0441249644041783  0.
0.4523396690620135 -3.5026957446925784  0.
0.3172585354485547 -3.472034554099808  0.
0.18344434212873098 -3.4427698827609756  0.
0.05061398522219051 -3.4148047060336704  0.
-0.08151732327776069 -3.388040213242223  0.
-0.2132375055879883 -3.362375261165448  0.
-0.34483805034928433 -3.3377065247679187  0.
-0.4766146904739167 -3.313928859662609  0.
-0.6088671048648008 -3.290935839681176  0.
-0.7418982650581749 -3.268620108363948  0.
-0.8760139208133775 -3.24687334130343  0.
-1.011521905903518 -3.2255859020158084  0.
-1.148732520116058 -3.2046461767260963  0.
-1.2879590199471973 -3.1839400627205245  0.
0.4348704313759408 -3.6506382511888726  0.
0.2983025547088184 -3.619846999099677  0.
0.16301697908092777 -3.590399999977239  0.
0.028732175184894675 -3.5621987798953447  0.
-0.10483437269861044 -3.53514245618565  0.
-0.23796847335074958 -3.5091270522534814  0.
-0.3709601704383143 -3.484045897074058  0.
-0.5041044862023312 -3.4597904331354585  0.
-0.6377008008099633 -3.4362511985461603  0.
-0.7720516552519149 -3.4133184676683404  0.
-0.9074616724589765 -3.3908822530827467  0.
-1.044236485522138 -3.3688317288712293  0.
-1.182683138407597 -3.347054122813793  0.
-1.3231110816375253 -3.3254337506580045  0.
0.41615217146716454 -3.7996908886647693  0.
0.27820350568103286 -3.768804037391717  0.
0.14155168087671505 -3.7392085748792177  0.
0.0059178779200083735 -3.710805583930171  0.
-0.12897690015389315 -3.683492506694548  0.
-0.2634155746353494 -3.6571623554994726  0.
-0.39768667492168236 -3.631704621152918  0.
-0.5320850727178292 -3.607006838714394  0.
-0.6669107795309496 -3.58295626848911  0.
-0.8024668668239103 -3.559440976294883  0.
-0.9390574773122089 -3.5363498983290653  0.
-1.076986106624242 -3.5135718995898837  0.
-1.2165559614292654 -3.4909939224731166  0.
-1.3580717640680413 -3.468499162476282  0.
0.39623142698052244 -3.949731660370054  0.
0.25700712741064863 -3.918784041846025  0.
0.11909209561278979 -3.8890745252824415  0.
-0.01778756838543251 -3.860505286020511  0.
-0.15390521216819644 -3.8329725029883646  0.
-0.2895397048146064 -3.806365665514905  0.
-0.4249780830673616 -3.7805694871674183  0.
-0.5605160395563533 -3.755466714062197  0.
-0.6964557027298208 -3.730940850882384  0.
-0.8331021819237266 -3.7068778808321663  0.
-0.9707601662750802 -3.6831664490494527  0.
-1.1097311059251262 -3.6596964137101335  0.
-1.2503133094654646 -3.636355823975277  0.
-1.392804909601283 -3.613027544337253  0.
0.3751571215208643 -4.100641624896185  0.
0.2347608436719395 -4.069667611582282  0.
0.0956821979384389 -4.039878438428402  0.
-0.04234364349789209 -4.011179687570159  0.
-0.17958090096435816 -3.9834665694478963  0.
-0.3163028095967678 -3.9566239488155044  0.
-0.4527952404420971 -3.930530169467213  0.
-0.5893563624611591 -3.905061798251594  0.
-0.7262927157100149 -3.880097795215261  0.
-0.8639137413588263 -3.8555220988944265  0.
-1.0025263096059962 -3.8312240571934355  0.
-1.1424300717047227 -3.807096400033249  0.
-1.283916720638764 -3.783030534989751  0.
-1.4272743359572873 -3.7589104975418337  0.
0.35298176775028905 -4.252304369611889  0.
0.2115141746805194 -4.221336447554743  0.
0.07136577684462762 -4.191501162230045  0.
-0.067711604322828 -4.162710835293922  0.
-0.20596771282838702 -4.134859535228936  0.
-0.34366837009724843 -4.107825410266589  0.
-0.4810993813094918 -4.081478000198725  0.
-0.6185641151009554 -4.055685755688225  0.
-0.7563768792319779 -4.030321951771817  0.
-0.8948547544416303 -4.005268309706622  0.
-1.0343093450955507 -3.9804159404609916  0.
-1.1750392225780948 -3.9556629645743855  0.
-1.3173270273667477 -3.930907713653016  0.
-1.4614447600666995 -3.906038356084018  0.
0.32976291085729736 -4.40460931903224  0.
0.18731856092988078 -4.373675597748655  0.
0.04618483728682084 -4.343825622410463  0.
-0.09385639926050729 -4.314982809985068  0.
-0.23303291714973673 -4.287038589965474  0.
-0.3716020325656425 -4.259860794749265  0.
-0.5098522597810151 -4.233306897650544  0.
-0.6480964219389843 -4.207235004433995  0.
-0.7866610849921655 -4.1815113069701395  0.
-0.9258753272803726 -4.1560146523084365  0.
-1.0660592958857298 -4.13063854708009  0.
-1.2075123533671503 -4.105289326095931  0.
-1.3505053451505638 -4.0798776124696365  0.
-1.4952844246301351 -4.054301490937954  0.
0.30556594378642954 -4.5574533801509265  0.
0.16222697014914914 -4.526573225805587  0.
0.020177347367012394 -4.496736068785459  0.
-0.12074835438102237 -4.467880689153661  0.
-0.26074729495383764 -4.439891366921589  0.
-0.4000701912665771 -4.412620004752196  0.
-0.5390143205576683 -4.385908686914082  0.
-0.6779080371858537 -4.359603581217788  0.
-0.8170953297108441 -4.333562515788412  0.
-0.9569221159004871 -4.307659869128875  0.
-1.0977222678433494 -4.281790405831862  0.
-1.239800251372703 -4.255870566096708  0.
-1.3834137098402317 -4.2298303337015115  0.
-1.5287687613844827 -4.203588770046275  0.
0.28046627489196074 -4.710755308619628  0.
0.13628968373115935 -4.679931979371648  0.
-0.0066285965876106525 -4.6501286980127245  0.
-0.14836593160374809 -4.621300200916607  0.
-0.2890837796419082 -4.593312435847065  0.
-0.42903654260316404 -4.565994599402766  0.
-0.568541547528473 -4.539172339661765  0.
-0.7079502484232891 -4.51268113247206  0.
-0.8476281590571837 -4.486370223164959  0.
-0.9879415724159123 -4.4601061015630155  0.
-1.1292438600185353 -4.433779646103814  0.
-1.2718531294969555 -4.407314341955346  0.
-1.4160184348811933 -4.3806668971669  0.
-1.561888953591339 -4.353796633152794  0.
0.2545520127516093 -4.8644741230095105  0.
0.10954463561724578 -4.83368113681104  0.
-0.03422295111471688 -4.803923985649411  0.
-0.17669342669275737 -4.775155309949835  0.
-0.31800736866999635 -4.747202553113707  0.
-0.4584494968118261 -4.719867725295455  0.
-0.5983754884874851 -4.69296746563915  0.
-0.7381660280674232 -4.666334036203313  0.
-0.878207947099751 -4.639810085494534  0.
-1.0188862361717137 -4.613248960890299  0.
-1.1605771046921545 -4.586523839277522  0.
-1.3036261468129469 -4.559551472279782  0.
-1.4482934753594239 -4.5323124425131045  0.
-1.5946647517528163 -4.504839345568031  0.
0.22791890739273163 -5.018651005340749  0.
0.08199001029251746 -4.9878158674549775  0.
-0.06262236465456057 -4.958100178925161  0.
-0.20570641656923191 -4.929399348245761  0.
-0.3474469323127667 -4.901466721483292  0.
-0.48821651720357057 -4.874094855824383  0.
-0.6284254436490252 -4.847116003517893  0.
-0.7684818968358346 -4.8203736769561845  0.
-0.9087856571165266 -4.793708758312221  0.
-1.0497299685096522 -4.76695576451284  0.
-1.1917051877369111 -4.73995045843949  0.
-1.335098239157514 -4.712557711420781  0.
-1.4802307888301656 -4.684758236275633  0.
-1.6271616961857722 -4.656680606659604  0.
0.2006383352313737 -5.173535198191036  0.
0.053528827312450934 -5.142475559007736  0.
-0.0918677171320595 -5.1127769112252  0.
-0.23530460490017557 -5.084043092024005  0.
-0.3772344378832932 -5.055984794505898  0.
-0.5181613677755125 -5.028456947332699  0.
-0.6585410334638508 -5.001339608552459  0.
-0.7987934810523968 -4.974501341457448  0.
-0.9393144291506202 -4.947786857709162  0.
-1.0804862830767599 -4.921011523756329  0.
-1.2226915990807496 -4.893959556802716  0.
-1.3663305761919522 -4.866396202490826  0.