<?xml version="1.0"?>
<VTKFile type="UnstructuredGrid" version="0.1" byte_order="LittleEndian" compressor="vtkZLibDataCompressor">
<UnstructuredGrid>
<Piece NumberOfPoints="714" NumberOfCells="1300">
<PointData>
<DataArray type="Float64" Name="displacement" NumberOfComponents="3" format="ascii" >
0.0 0.0  0.
0.0 0.0  0.
0.0 0.0  0.
0.0 0.0  0.
0.0 0.0  0.
0.0 0.0  0.
0.0 0.0  0.
0.0 0.0  0.
0.0 0.0  0.
0.0 0.0  0.
0.0 0.0  0.
0.0 0.0  0.
0.0 0.0  0.
0.0 0.0  0.
0.0023478461832333454 -0.0016752042393905248  0.
0.001552975268337231 -0.0009282119053963896  0.
0.00117575281692725 -0.0005438656793305896  0.
0.0008822058887160211 -0.0003068702547172085  0.
0.0006173930696306328 -0.0001556649829294422  0.
0.00036538807241071313 -6.424945467554545e-05  0.
0.00011911535059160559 -2.036864595580035e-05  0.
-0.00012593067908910915 -1.919479641665515e-05  0.
-0.00037376668782141786 -6.139175474478733e-05  0.
-0.0006292279197852913 -0.00015330929569395973  0.
-0.0008997340218078894 -0.00030914509211734585  0.
-0.001199197847470159 -0.0005560753312533278  0.
-0.001559969412202299 -0.0009445503939330308  0.
-0.0020865485975548404 -0.0015630155364701561  0.
0.00435757104155832 -0.002814274318531705  0.
0.003329381813162556 -0.0020636313663200258  0.
0.002529248253758983 -0.0014716782620018138  0.
0.0018865080164227666 -0.0010685656748291794  0.
0.00131414002371331 -0.0007999702649024922  0.
0.000775997921100235 -0.0006339340269136567  0.
0.00025394459210542023 -0.0005535538484319614  0.
-0.0002638593321263165 -0.0005515963152206506  0.
-0.0007875433405889886 -0.0006282445318699411  0.
-0.00132821629963669 -0.0007906077902524209  0.
-0.0019007323169030327 -0.001053298516561082  0.
-0.0025281687080332556 -0.0014393575817768611  0.
-0.00325140690819517 -0.001979295656345391  0.
-0.004153906308519977 -0.002698905043155247  0.
0.006295521555017681 -0.004042726534084761  0.
0.005048232888462264 -0.003301850123488222  0.
0.003939199401643514 -0.002674781185582575  0.
0.0029561910723082917 -0.002192182475387735  0.
0.0020616742823660918 -0.0018516286039302248  0.
0.0012182314381061694 -0.0016345603976264313  0.
0.00040088838171968094 -0.0015272062821994588  0.
-0.00040849095107946883 -0.0015225927246586642  0.
-0.0012255354968075838 -0.0016199665454642944  0.
-0.002066282224380099 -0.0018241709687021694  0.
-0.002949689625986199 -0.002144995946249965  0.
-0.0039004329645783743 -0.002595766483014416  0.
-0.004952202311273967 -0.0031894015121894975  0.
-0.006148506656730069 -0.003928068644122725  0.
0.008206834916742208 -0.005489695275705593  0.
0.006718642063055491 -0.004757281801062761  0.
0.0053289481594595125 -0.004131112011163446  0.
0.00403808490005505 -0.0036282630184195806  0.
0.002828828387003732 -0.0032558560468755686  0.
0.0016760092033471273 -0.0030107924623068625  0.
0.0005551231030826672 -0.002886401559684502  0.
-0.0005548523096845843 -0.002878073354799562  0.
-0.0016729030253686168 -0.0029847261885288722  0.
-0.0028178610957599864 -0.0032087361974403373  0.
-0.004009995104836505 -0.0035551055659558055  0.
-0.005272032349964061 -0.0040297262809250245  0.
-0.006628540120682424 -0.004636157182152594  0.
-0.008099059609093455 -0.005370554810404743  0.
0.0100964494493781 -0.007202567573444579  0.
0.008349737616523165 -0.006479207152769362  0.
0.006685102382811545 -0.005862689041000715  0.
0.005102821222669154 -0.00536129683606486  0.
0.003592202819383418 -0.004981580338763928  0.
0.0021353492329643587 -0.004725794134182637  0.
0.000711480346024454 -0.004592911910453334  0.
-0.0007001928866408883 -0.004581172507860547  0.
-0.002119703398793567 -0.004689875788725336  0.
-0.0035667920291263117 -0.004919817612470345  0.
-0.005061452016229437 -0.005272800202418513  0.
-0.006623790347417163 -0.005750416366332707  0.
-0.008272056440785668 -0.006352246063869612  0.
-0.010016055970027223 -0.007074283009536493  0.
0.011960141644779208 -0.00920010775759165  0.
0.009945149013548493 -0.008487047398609598  0.
0.00800643680696968 -0.007882362976713712  0.
0.006141022703982791 -0.007389666760862231  0.
0.004339416100494171 -0.007013471955114861  0.
0.0025869170213801648 -0.006756978180380955  0.
0.0008656337694912228 -0.0066215495664254395  0.
-0.0008436965854859334 -0.006607370562460725  0.
-0.0025606101621604488 -0.006714351897083751  0.
-0.004304503716359056 -0.006942590777302259  0.
-0.006094410171166504 -0.007292226744979382  0.
-0.00794830252068234 -0.007762851012028598  0.
-0.00988115408020143 -0.008352816192996337  0.
-0.01190069708913144 -0.009059319890175093  0.
0.013792525225571983 -0.01148810516402519  0.
0.011505656796946158 -0.010786514188570488  0.
0.009293822307166143 -0.010194050397187094  0.
0.0071506001950302 -0.009712057542944203  0.
0.005065852167453852 -0.009343351140219197  0.
0.003025973638231756 -0.009090686482050716  0.
0.0010147642971451128 -0.00895599032134207  0.
-0.0009855428540122987 -0.008940270023085485  0.
-0.0029933920411543123 -0.009043869223285941  0.
-0.00502725257750274 -0.00926670223148883  0.
-0.007105045889248607 -0.009608271850803578  0.
-0.009243313862540037 -0.01006751257091906  0.
-0.01145578224223854 -0.010642741190705459  0.
-0.013751196819451035 -0.011332299566065383  0.
0.0155891187008996 -0.01406596171497464  0.
0.013030879731029456 -0.01337672312698114  0.
0.010548150872054421 -0.012796379970058771  0.
0.008131750451536038 -0.012325264690684205  0.
0.005770444076930358 -0.011965048181803493  0.
0.0034507911283158115 -0.011717768051795939  0.
0.0011574692567079426 -0.01158517225357051  0.
-0.0011261721981033494 -0.011568415003415834  0.
-0.0034174855795921647 -0.011668010537074293  0.
-0.005733918758301184 -0.011883890252419222  0.
-0.008092404783564705 -0.012215455595944624  0.
-0.010508629081939188 -0.012661635935884534  0.
-0.012996120786531097 -0.013221113889487358  0.
-0.015565394016276995 -0.013893012001259506  0.
0.01734663961831055 -0.01692983907635698  0.
0.014520081880771751 -0.016253548803059063  0.
0.011769987402689778 -0.015685121774387363  0.
0.009085192878575414 -0.015224493472531606  0.
0.006453438193079902 -0.014872625409676992  0.
0.0038610993532830627 -0.014630917981038145  0.
0.001293269978531187 -0.01450073029500865  0.
-0.0012659513420108096 -0.014483070224720564  0.
-0.003833042698778824 -0.014578450118782223  0.
-0.006424582882624581 -0.014786858511096868  0.
-0.009056743439383012 -0.01510780691645289  0.
-0.01174473946629043 -0.01554045787292693  0.
-0.014502322548996228 -0.01608391022107924  0.
-0.017341588291702483 -0.016737744608947874  0.
0.01906282766623375 -0.020074267753294975  0.
0.015972525184444298 -0.01941129455435444  0.
0.012959618163754882 -0.0188545825375536  0.
0.010011606169883601 -0.018403949391957643  0.
0.007115423668771799 -0.018059936098944816  0.
0.004257179759049769 -0.017823463960455147  0.
0.001422144288047785 -0.017695508658560767  0.
-0.0014051085174935343 -0.01767684957721057  0.
-0.004240428331899923 -0.017767919747269115  0.
-0.0070997457411621735 -0.017968751550622532  0.
-0.00999869971412557 -0.018279010909233295  0.
-0.012952267054007552 -0.01869812540597919  0.
-0.01597451444237191 -0.019225532612612003  0.
-0.019078679343325494 -0.019861055094592867  0.
0.020736168743217775 -0.023492954047914547  0.
0.0173875831134389 -0.02284350552416107  0.
0.014117143671356913 -0.022298335474902647  0.
0.010911484137660655 -0.021857257574994057  0.
0.007756959571286958 -0.021520569835280567  0.
0.004639433406671527 -0.02128885978265992  0.
0.0015442361326900116 -0.021162793237090194  0.
-0.0015437670194965243 -0.02114293162060791  0.
-0.004640002852366682 -0.021229608880219047  0.
-0.007759956417244995 -0.021422878890061083  0.
-0.010918919351786703 -0.021722538987743737  0.
-0.01413175778159278 -0.022128232739216828  0.
-0.017412811843251504 -0.02263963362374193  0.
-0.020776048999114543 -0.023256679284253116  0.
0.02236566728687205 -0.027179208929634047  0.
0.01876476656948544 -0.026543385760722127  0.
0.015242561462633782 -0.026009613442588165  0.
0.011785142212093 -0.025577738447274463  0.
0.008378469224223887 -0.025247919987819084  0.
0.005008212986700467 -0.025020522264055663  0.
0.0016597136602671237 -0.0248959821964412  0.
-0.001681990696456399 -0.024874684203400322  0.
-0.00503205538123156 -0.024956869892971113  0.
-0.008405676198226622 -0.025142596457110852  0.
-0.011817929809780022 -0.025431752357004542  0.
-0.015283635900880355 -0.02582413075898106  0.
-0.018817331011405307 -0.026319552657808144  0.
-0.022433409316196536 -0.026918002687928124  0.
0.023950671152491117 -0.031126156088237735  0.
0.020103706774536812 -0.030503992181704787  0.
0.016335816594586158 -0.029981497638453376  0.
0.012632758592608366 -0.029558555703512197  0.
0.008980234748134192 -0.029235245793095634  0.
0.005363776241521238 -0.02901178559220817  0.
0.0017687136129313646 -0.028888450640102505  0.
-0.0018198152249929715 -0.028865492029234933  0.
-0.005416797615480944 -0.02894307445548619  0.
-0.00903724953906302 -0.029121246469831646  0.
-0.01269611983340372 -0.029399950577340198  0.
-0.016408210981591852 -0.0297790717887152  0.
-0.02018818515945422 -0.03025851456636099  0.
-0.02405066715039807 -0.03083827661607003  0.
0.025490759339723 -0.03532685829080135  0.
0.021404136841556277 -0.03471834828241776  0.
0.017396837896050434 -0.03420703121121487  0.
0.013454422405159741 -0.03379281906210598  0.
0.009562428450397408 -0.033475743755641975  0.
0.005706291999459835 -0.0332559270989008  0.
0.0018713291500765982 -0.03313353329226543  0.
-0.00195726606428978 -0.0331087165203607  0.
-0.005794380330357899 -0.0331815804089285  0.
-0.009654921666235196 -0.03335215800806246  0.
-0.013553765233689178 -0.03362041802249082  0.
-0.017505708025594893 -0.033986295004623884  0.
-0.021525485721280452 -0.034449734872652515  0.
-0.025627838181878075 -0.035010732635687526  0.
0.02698565189308388 -0.03977434032429537  0.
0.022665858957079142 -0.03917945831697915  0.
0.01842554768493657 -0.03867923483480226  0.
0.014250162975689876 -0.03827359988808713  0.
0.010125141921693023 -0.0379625549897284  0.
0.006035858041109994 -0.037746158255492254  0.
0.0019676140756547072 -0.03762449725425231  0.
-0.002094365287588905 -0.03759765646373162  0.
-0.006164908092754064 -0.03766569169316519  0.
-0.010258859410904646 -0.037828617150418395  0.
-0.014391052956030324 -0.03808640910107919  0.
-0.018576284123615755 -0.03843902366226499  0.
-0.022829328282726664 -0.03888642254394271  0.
-0.027164977741132083 -0.039428591198689945  0.
0.028435165703921232 -0.04446163108497349  0.
0.023888731476450046 -0.0438803425178854  0.
0.019421875793233928 -0.04339114291289576  0.
0.015019978767190668 -0.042993970521873426  0.
0.010668417030676142 -0.042688805100898966  0.
0.006352524549705731 -0.042475660968595064  0.
0.0020575936768023858 -0.0423545721163341  0.
-0.0022311346363498136 -0.042325572404405286  0.
-0.0065284551357966064 -0.04238867992854716  0.
-0.010849177104258484 -0.04254388890713841  0.
-0.015208111378400545 -0.04279117172355686  0.
-0.019620052671977275 -0.043130488884110266  0.
-0.02409979612391229 -0.04356180305469571  0.
-0.02866215526521002 -0.044085087264245613  0.
0.02983918001363764 -0.04938176854652976  0.
0.025072653197458685 -0.04881403778928704  0.
0.020385762551763227 -0.048335805109626255  0.
0.01576385304815021 -0.04794700927405684  0.
0.011192266238831704 -0.04764761241865822  0.
0.006656311852630341 -0.04743759709452804  0.
0.0021412749507483822 -0.04731695857889622  0.
-0.0023675951151035483 -0.04728569300309009  0.
-0.006885074614618017 -0.04734378808147459  0.
-0.011425952918120322 -0.04749121814089008  0.
-0.01600502842801348 -0.04772794521310201  0.
-0.020637095231002454 -0.048053924311253084  0.
-0.025336957479052267 -0.04846911088811752  0.
-0.030119435857602565 -0.04897346431825459  0.
0.03119761438553791 -0.05452779649267713  0.
0.026217551907556855 -0.05397359163230886  0.
0.021317159397261216 -0.05350628081987533  0.
0.016481763652587328 -0.053125797744902524  0.
0.011696686604484257 -0.05283208877848953  0.
0.0069472236246813455 -0.05262511186899904  0.
0.002218655062717675 -0.05250483297044381  0.
-0.0025037654715401704 -0.05247121897980105  0.
-0.007234804189578362 -0.05252423241427684  0.
-0.011989239574782283 -0.05266382842911053  0.
-0.016781863359966842 -0.052889955395367054  0.
-0.021627468960099247 -0.053202557520157664  0.
-0.02654086422369339 -0.053601578776676116  0.
-0.03153687149837709 -0.054086964282310995  0.
0.03251042191496889 -0.05989278908676976  0.
0.027323382558878374 -0.0593520845170799  0.
0.022216033472984006 -0.05889566170906977  0.
0.017173692708017028 -0.058523445424132285  0.
0.01218167171357764 -0.05823536700288014  0.
0.007225257666142395 -0.058031364010623726  0.
0.00228972811724548 -0.057911378935272824  0.
-0.002639661158135387 -0.05787535496223543  0.
-0.0075776709605343264 -0.05792323303331087  0.
-0.012539073884896177 -0.05805495009157327  0.
-0.01753865812363918 -0.05827043940416813  0.
-0.02259121644661088 -0.05856963174434241  0.
-0.027711558014389657 -0.05895245749868117  0.
-0.03291450509071179 -0.05941884717720853  0.
0.03377757207910238 -0.06546981264711045  0.
0.028390114514090223 -0.06494259086588598  0.
0.02308236086037898 -0.06449703302374331  0.
0.01783962538604033 -0.06413305248240299  0.
0.012647214262444252 -0.0638505658417139  0.
0.007490410169765222 -0.06364949279085157  0.
0.002354489164935376 -0.063529756001688  0.
-0.002775291825773577 -0.06349127853123757  0.
-0.007913690686978971 -0.06353398227693105  0.
-0.013075476821383413 -0.06365778696049612  0.
-0.018275436545000565 -0.06386261033624151  0.
-0.023528362054096415 -0.06414836862916411  0.
-0.02884906285775034 -0.06451497772263078  0.
-0.03425236085731491 -0.06496235332242167  0.
0.03499905062739675 -0.07125194096991498  0.
0.029417732340952504 -0.07073819342354574  0.
0.023916129385126585 -0.07030348794556744  0.
0.018479554581138497 -0.06994772504367167  0.
0.01309331163157525 -0.06967080674301414  0.
0.007742680841246373 -0.06947263639296705  0.
0.0024129375926818554 -0.06935311915193512  0.
-0.002910660510242101 -0.06931216029537651  0.
-0.008242869739140143 -0.06934966446397808  0.
-0.013598457716002444 -0.06946553507947421  0.
-0.018992209734423317 -0.06965967450424022  0.
-0.02443891747695485 -0.06993198410940665  0.
-0.029953390422060057 -0.07028236500198866  0.
-0.035550450174255746 -0.07071071801849844  0.
0.0361748620149507 -0.0772322840400073  0.
0.03040623839345986 -0.07673201119605957  0.
0.024717341902989468 -0.07630815544768331  0.
0.019093484937529468 -0.07596060363415238  0.
0.013519970131531087 -0.07568924333121717  0.
0.00798207655311566 -0.075493962528684  0.
0.0024650793789137175 -0.07537465036124705  0.
-0.003045763330178196 -0.07533119589427642  0.
-0.008565206894443178 -0.07536348780048915  0.
-0.01410801786459792 -0.07547141401565091  0.
-0.019688980916148752 -0.07565486187130738  0.
-0.02532288722358869 -0.07591371797970976  0.
-0.031024546038953982 -0.07624786870922536  0.
-0.03680877860112495 -0.07665720009035945  0.
0.03730501239355882 -0.0834039075236229  0.
0.031355638239065745 -0.08291711943261983  0.
0.02548600510268094 -0.0825041205882263  0.
0.01968142514560869 -0.08216478392536548  0.
0.013927200524723293 -0.08189898281763994  0.
0.008208609613967374 -0.08170659061512439  0.
0.002510927611352253 -0.08158748145820655  0.
-0.003180587077604986 -0.08154152930493562  0.
-0.008880689149292841 -0.08156860782564555  0.
-0.014604144418331605 -0.08166859018308426  0.
-0.020365737100669776 -0.08184134914214418  0.
-0.026180257812513853 -0.08208675686462415  0.
-0.03206251540582496 -0.08240468524024952  0.
-0.03802733065059359 -0.08279500570037789  0.
0.03838952865506439 -0.08975994105232138  0.
0.03226595698376165 -0.08928665664639959  0.
0.026222143120384237 -0.08888453113284828  0.
0.020243398900599546 -0.0885534235167097  0.
0.014315026165155663 -0.08829319323272188  0.
0.00842230280110729 -0.08810369954979375  0.
0.0025505041062237324 -0.08798480236937486  0.
-0.003315111237891695 -0.08793636135869114  0.
-0.009189297460674897 -0.08795823594119777  0.
-0.015086819780082526 -0.08805028513123893  0.
-0.021022461976499835 -0.08821236761493041  0.
-0.02701101400741373 -0.08844434149270937  0.
-0.033067284126247924 -0.08874606450448268  0.
-0.03920609230448065 -0.08911739378546345  0.
0.039428436822982804 -0.09629345798080396  0.
0.03313722067238498 -0.09583370540501053  0.
0.026925782541047046 -0.0954424787459272  0.
0.020779433654934672 -0.09511962335813898  0.
0.014683475470619153 -0.09486498512082438  0.
0.008623185408033184 -0.09467840973964439  0.
0.0025838388557860846 -0.09455974349724779  0.
-0.003449305280405504 -0.09450883242664551  0.
-0.009491000835816752 -0.09452552233404136  0.
-0.015556012473652422 -0.09460965865031809  0.
-0.021659123495631306 -0.09476108647863467  0.
-0.02781512307212772 -0.09497965030478783  0.
-0.03403881864449847 -0.0952651941405155  0.
-0.04034502913198102 -0.09561756122187863  0.
0.04042177924810172 -0.10299758096124113  0.
0.0339694708489575 -0.10255139691545967  0.
0.027596964295639993 -0.10217110324492448  0.
0.021289569855203732 -0.10185653202349043  0.
0.015032588442376102 -0.10160751599798852  0.
0.008811296949841636 -0.10142388780075492  0.
0.0026109708112043986 -0.10130548063789739  0.
-0.003583130884438048 -0.10125212747191219  0.
-0.009785761609436158 -0.1012636610459295  0.
-0.01601168546866973 -0.10133991373256702  0.
-0.022275685212553804 -0.10148071754357568  0.
-0.028592549086072144 -0.10168590381411488  0.
-0.034977083496254655 -0.1019553032778348  0.
-0.041444105989100484 -0.10228874571358126  0.
0.04136960645198182 -0.10986543913306837  0.
0.03476275759302611 -0.1094328685629233  0.
0.028235737937177104 -0.10906355026725617  0.
0.021773856555302267 -0.10875730347285527  0.
0.015362413637426396 -0.1085139482361761  0.
0.008986685463010256 -0.10833330459441609  0.
0.0026319474576081484 -0.10821519318018613  0.
-0.003716541136745235 -0.10815943440043818  0.
-0.010073533442196678 -0.10816584845095699  0.
-0.016453792985092662 -0.10823425515401884  0.
-0.022872101882782055 -0.10836447392407386  0.
-0.02934324731497805 -0.10855632342243449  0.
-0.035882034446711446 -0.10880962156364524  0.
-0.042503279144801634 -0.1091241851542694  0.
0.04227197015190298 -0.11689011194200384  0.
0.03551713331792748 -0.11647120802840363  0.
0.028842156615596994 -0.11611291552438055  0.
0.022232347598058262 -0.1158150413585317  0.
0.01567300555189425 -0.11557739342624723  0.
0.009149406067993826 -0.11539977967373115  0.
0.0026468245252365932 -0.11528200865389207  0.
-0.0038494797017377944 -0.11522388871406236  0.
-0.010354259395513859 -0.11522522800928928  0.
-0.016882277487337588 -0.11528583432896208  0.
-0.023448315384188637 -0.11540551500955454  0.
-0.030067159064896952 -0.11558407654762586  0.
-0.03675361225515985 -0.11582132453739911  0.
-0.043522488978718715 -0.11611706329409868  0.
0.04312893876449932 -0.12406475222624143  0.
0.03623266600038593 -0.12365957554616927  0.
0.02941628769935289 -0.12331236675202706  0.
0.0226651096210879 -0.12302292095505207  0.
0.01596443000027724 -0.12279103438575856  0.
0.009299523712915224 -0.1226165033816695  0.
0.0026556660872434873 -0.12249912488399083  0.
-0.003981883383683852 -0.1224386956599445  0.
-0.010627877170883728 -0.12243501233775014  0.
-0.017297077616354056 -0.12248787122392053  0.
-0.02400426534694984 -0.12259706813928868  0.
-0.030764224989844515 -0.12276239795069223  0.
-0.0375917586131141 -0.12298365440594612  0.
-0.0445016781389139 -0.12326062977012753  0.
0.0439405795436619 -0.13138244362756984  0.
0.036909423895048726 -0.13099106230717456  0.
0.029958200360612235 -0.13065500246262218  0.
0.023072212557686128 -0.13037404799370847  0.
0.01623675756726976 -0.13014798402004277  0.
0.009437109601405052 -0.1299765957457012  0.
0.0026585439779417495 -0.12985966893653308  0.
-0.004113679720485353 -0.1297969892445215  0.
-0.010894313736793507 -0.12978834231489605  0.
-0.017698119883506915 -0.12983351359709894  0.
-0.024539877948908776 -0.1299322880557173  0.
-0.031434371009210864 -0.13008444954306067  0.
-0.03839639917341455 -0.13028978046297157  0.
-0.04544077204728757 -0.13054806139427555  0.
0.04470697301021526 -0.13883632680103689  0.
0.03754748775924486 -0.13845881586590614  0.
0.03046797539625972 -0.13813397711433884  0.
0.023453736970998357 -0.13786158385194563  0.
0.016490068439896546 -0.137641410617262  0.
0.00956224355188405 -0.13747323187178795  0.
0.0026555377108729693 -0.13735682254595  0.
-0.004244789501421841 -0.13729195759799678  0.
-0.011153490312702082 -0.1372784122829753  0.
-0.018085326176631947 -0.1373159619542816  0.
-0.02505507599890098 -0.1374043815505633  0.
-0.03207752099097312 -0.13754344465347598  0.
-0.03916745878396942 -0.13773292283824587  0.
-0.0463396961874763 -0.13797258521726635  0.
0.04542820575186428 -0.14641954617749128  0.
0.03814694485095856 -0.1460559872736428  0.
0.030945700247348402 -0.1457424484035725  0.
0.023809770094046404 -0.14547869298563113  0.
0.016724449534916853 -0.14526448543129128  0.
0.009675012310647732 -0.1450995896571634  0.
0.0026467340571510478 -0.14498376989575285  0.
-0.004375125903830767 -0.1449167907393494  0.
-0.011405320272726602 -0.14489841772594203  0.
-0.018458610534300056 -0.14492841711352056  0.
-0.02554977469243772 -0.14500655495508563  0.
-0.03269359155133524 -0.1451325955530541  0.
-0.039904855322060784 -0.14530630021900096  0.
-0.04719836905566033 -0.1455274266275844  0.
0.04610436526081478 -0.15412519062681115  0.
0.038707884479913794 -0.15377567198612452  0.
0.03139146530521849 -0.15347351836882164  0.
0.024140402821340296 -0.1532184842504428  0.
0.016939992273476014 -0.153010324258627  0.
0.009775508283725523 -0.15284879159025472  0.
0.00263222687480195 -0.15273363952916624  0.
-0.0045045935342927085 -0.1526646224455934  0.
-0.011649707152948255 -0.15264149696425094  0.
-0.01881787630839146 -0.1526640216650272  0.
-0.02602387814008963 -0.152731955408109  0.
-0.033282488093841926 -0.15284505467545614  0.
-0.04060849522379017 -0.15300307124540258  0.
-0.04801669703402185 -0.15320575105564366  0.
0.046735551461085934 -0.16194642771992346  0.
0.03923040790582282 -0.16161104347849942  0.
0.031805371475236356 -0.161320366967138  0.
0.024445734859070735 -0.16107414486539617  0.
0.017136795538941617 -0.1608721219420765  0.
0.009863830635251897 -0.16071403971517872  0.
0.002612116600885684 -0.16059963952466527  0.
-0.004633090486364129 -0.1605286653097409  0.
-0.011886548422641759 -0.16050086578823988  0.
-0.019163021971376676 -0.16051599397806118  0.
-0.02647728756997124 -0.160573804182175  0.
-0.03384411565022816 -0.16067404733550977  0.
-0.04127828696005146 -0.1608164667107961  0.
-0.04879458988251445 -0.16100079576160534  0.
0.04732186344541846 -0.1698763468059967  0.
0.039714617111171885 -0.16955519708630276  0.
0.032187520496022276 -0.16927609647413022  0.
0.024725866628710586 -0.16903878550746038  0.
0.017314959674004406 -0.16884299826413807  0.
0.009940082000193933 -0.1686884622120875  0.
0.0025865101184285467 -0.16857490444950504  0.
-0.004760505229672749 -0.1685020576601635  0.
-0.012115729409930547 -0.1684696639818106  0.
-0.019493932628347664 -0.16847747414076886  0.
-0.026909891056295553 -0.16852524210883382  0.
-0.034378367300437696 -0.16861271698690897  0.
-0.04191412823443328 -0.16873963522939667  0.
-0.04953194659185398 -0.16890571642227858  0.
0.04786341094549575 -0.17790809468000246  0.
0.04016062417724347 -0.1776012849321721  0.
0.03253802103765786 -0.17733386676771343  0.
0.024980902225024935 -0.17710557672718455  0.
0.017474587215535638 -0.17691613576980625  0.
0.010004368049927014 -0.1767652524151587  0.
0.0025555198647636084 -0.17665263500420691  0.
-0.004886717823268923 -0.17657800310070113  0.
-0.012337125294404729 -0.17654109407277335  0.
-0.01981048368248947 -0.17654166146513472  0.
-0.027321569900103034 -0.17657946573514086  0.
-0.03488513409216594 -0.17665426029267434  0.
-0.04251591965150298 -0.17676577770763074  0.
-0.050228671802566724 -0.17691372150471535  0.
0.04836031117529913 -0.18603481468839686  0.
0.04056854773326677 -0.18574245507386175  0.
0.03285698316474671 -0.1854868353738518  0.
0.0252109425853785 -0.1852676907388608  0.
0.017615776516193834 -0.1850847235957682  0.
0.010056793328790427 -0.1849376143713792  0.
0.0025192630078310495 -0.1848260445617615  0.
-0.0050115971961711865 -0.18474971707690438  0.
-0.012550595558668626 -0.18470836702163862  0.
-0.020112533864530265 -0.18470175869003566  0.
-0.027712191929348356 -0.1847296699337715  0.
-0.03536430003981689 -0.18479186863327657  0.
-0.043083561978071304 -0.18488808873359117  0.
-0.05088467458731586 -0.18501801464802367  0.
0.04881269059140786 -0.19424958078438354  0.
0.04093851183675392 -0.19397178518708375  0.
0.03314451269373152 -0.19372809238591768  0.
0.02541607695035553 -0.1935182387599217  0.
0.017738613283295075 -0.1933418975744174  0.
0.010097455610209236 -0.19319870528797203  0.
0.0024778602882255312 -0.19308830302246505  0.
-0.00513499752179937 -0.19301037094182805  0.
-0.012755976624590604 -0.19296464529724305  0.
-0.02039991624358904 -0.19295091315634402  0.
-0.028081603540725256 -0.19296898687554892  0.
-0.03581573761885303 -0.19301866541587212  0.
-0.04361695627902681 -0.19309969359036297  0.
-0.05149987225399644 -0.19321173301054675  0.
0.049220703221160615 -0.202545538477556  0.
0.041270655760904655 -0.20228242197095023  0.
0.03340071064097365 -0.20205080119321697  0.
0.025596375475531043 -0.2018504147244542  0.
0.017843161177878937 -0.2016808872546183  0.
0.010126438483485238 -0.20154178535303546  0.
0.0024314329264781167 -0.20143268847989418  0.
-0.005256756534834113 -0.2013532442222995  0.
-0.012953076773058236 -0.20130319431942575  0.
-0.02067243271879981 -0.20128236609016645  0.
-0.028429627751575207 -0.2012906323773303  0.
-0.03623931335275077 -0.20132784978483184  0.
-0.0441160195014904 -0.2013937909089304  0.
-0.05207421483861639 -0.20148809140128573  0.
0.04958454144453798 -0.2109157396960101  0.
0.041565131625792846 -0.21066741461871502  0.
0.0336256581142925 -0.21044803338290882  0.
0.025751868259224618 -0.2102573326978934  0.
0.01792944226091855 -0.2100948557263075  0.
0.010143798527619645 -0.2099600596605795  0.
0.002380099486564927 -0.2098524310668236  0.
-0.005376688248571899 -0.20977157003892818  0.
-0.01314165994768465 -0.20971722853119124  0.
-0.020929832679927762 -0.20968929784247542  0.
-0.028756043388658968 -0.20968774892132386  0.
-0.03663487391251553 -0.20971253722470812  0.
-0.044580682355253025 -0.20976349277607745  0.
-0.05260769530777581 -0.2098402257000714  0.
0.04990447788065017 -0.21935329954275282  0.
0.04182211773949254 -0.21911986758216975  0.
0.033819406931177645 -0.21891292127904316  0.
0.025882525442612235 -0.21873217905681636  0.
0.01799741638507754 -0.21857705042414788  0.
0.010149549929626741 -0.2184468280095678  0.
0.0023239688716113808 -0.2183408637215738  0.
-0.005494580356340933 -0.21825868908712828  0.
-0.013321434465947645 -0.21820006945448217  0.
-0.021171796934606656 -0.21816498869305098  0.
-0.029060571600161567 -0.21815356643480788  0.
-0.03700224506519915 -0.21816591819231781  0.
-0.04501090995438613 -0.21820198211766206  0.
-0.053100395168082105 -0.2182613540453816  0.
0.0501809188968467 -0.227851349203743  0.
0.04204182513221019 -0.22763288778492974  0.
0.03398195811401828 -0.2274386004959259  0.
0.02598822784034677 -0.22726814580434332  0.
0.01804695511901421 -0.22712072407945405  0.
0.010143646016016505 -0.2269953957377645  0.
0.002263131424043342 -0.22689133016768923  0.
-0.00561019153322873 -0.22680796368971584  0.
-0.013492037291090988 -0.22674507209544487  0.
-0.021397910881709475 -0.22670275832055894  0.
-0.029342845945657274 -0.226681350243973  0.
-0.03734121309616096 -0.22668120840343406  0.
-0.04540671160590677 -0.2267024630972558  0.
-0.0535525341115808 -0.2267447330927064  0.
0.05041449534198077 -0.23640319118118153  0.
0.04222451010230057 -0.23619972921281976  0.
0.0341132421402485 -0.23601833818327597  0.
0.026068744716038605 -0.23585852881114844  0.
0.018077825168935167 -0.2357191962206835  0.
0.01012596572270712 -0.2355991045742108  0.
0.0021976458649476853 -0.23549720264691074  0.
-0.0057232611584523635 -0.23541280511182153  0.
-0.013653033186045079 -0.2353456807957479  0.
-0.021607647915849466 -0.23529605752597788  0.
-0.02960238485315554 -0.23526452213381038  0.
-0.03765150546319278 -0.23525178451142675  0.
-0.04576815981537678 -0.2352582999985589  0.
-0.053964555663639356 -0.23528380345720684  0.
0.05060618201392912 -0.24500232846357461  0.
0.0423704789257013 -0.24481380367040653  0.
0.034213104213240086 -0.24464550033399368  0.
0.026123736800037763 -0.2444966210437127  0.
0.01808970409535978 -0.24436566105450858  0.
0.010096322682701905 -0.2442510688664869  0.
0.0021275277624357154 -0.2441515814008949  0.
-0.0058335395461601046 -0.24406638386604174  0.
-0.01380394539393907 -0.24399519628751556  0.
-0.02180037741717034 -0.24393831834597676  0.
-0.02983856776212602 -0.24389658875067177  0.
-0.037932755276820454 -0.24387116047300889  0.
-0.046095393740463925 -0.24386300809859848  0.
-0.05433723290342225 -0.2438721862039543  0.
0.05075745100345482 -0.25364313709348035  0.
0.04248009342475234 -0.25346931435634606  0.
0.03428133485897034 -0.25331408041278053  0.
0.026152840990018224 -0.2531760806333642  0.
0.01808228150889523 -0.25305338338039973  0.
0.010054532753801634 -0.2529442286346228  0.
0.0020527473066028487 -0.2528472648156346  0.
-0.005940866492209423 -0.2527616000211833  0.
-0.01394437844903941 -0.2526868404717966  0.
-0.02197547189713319 -0.25262318768097297  0.
-0.03005067695739632 -0.25257155897154343  0.
-0.038184482810507625 -0.2525335345003945  0.
-0.046388618789530586 -0.25251084603658247  0.
-0.054671815514041995 -0.2525042720598332  0.
0.050870379923816454 -0.26232151187928726  0.
0.04255376244353583 -0.2621618105603816  0.
0.03431780721305201 -0.2620190109334505  0.
0.02615592625820895 -0.2618909173892042  0.
0.018055531213281118 -0.2617753688323824  0.