<?xml version="1.0"?>
<VTKFile type="UnstructuredGrid" version="0.1" byte_order="LittleEndian" compressor="vtkZLibDataCompressor">
<UnstructuredGrid>
<Piece NumberOfPoints="714" NumberOfCells="1300">
<PointData>
<DataArray type="Float64" Name="displacement" NumberOfComponents="3" format="ascii" >
0.0 0.0  0.
0.0 0.0  0.
0.0 0.0  0.
0.0 0.0  0.
0.0 0.0  0.
0.0 0.0  0.
0.0 0.0  0.
0.0 0.0  0.
0.0 0.0  0.
0.0 0.0  0.
0.0 0.0  0.
0.0 0.0  0.
0.0 0.0  0.
0.0 0.0  0.
0.01595954410570809 -0.017466597349381757  0.
0.009134226955121673 -0.009506432079114217  0.
0.006722203763092627 -0.005350322103043321  0.
0.004982821540177741 -0.0026383536361875544  0.
0.003466079834092462 -0.0008150750565731539  0.
0.00204804182367386 0.00035904762409814597  0.
0.0006731432555481837 0.0010007066700737273  0.
-0.000694951219190411 0.0011559172011144404  0.
-0.0020891800818990214 0.000815836411539984  0.
-0.003548440098371573 -8.479540617571878e-05  0.
-0.0051285229681303415 -0.0016842905426318695  0.
-0.006922651526987932 -0.004231023653503954  0.
-0.009114518414030704 -0.008154575458991594  0.
-0.012117012167622529 -0.014217645839826862  0.
0.029596606109413576 -0.027224474736426522  0.
0.0215656264251918 -0.019501793420671446  0.
0.01572951910648853 -0.013072565209485252  0.
0.011547262214108409 -0.00860486193904243  0.
0.007999911322295503 -0.005496483105963951  0.
0.004750604591127574 -0.0034517503036939233  0.
0.001639493945802376 -0.002319519027808254  0.
-0.0014373444216247244 -0.0020358074858560352  0.
-0.00456846644472046 -0.0026031211131012787  0.
-0.00784832151261568 -0.0040848563492764615  0.
-0.011396198489257285 -0.006607467280497426  0.
-0.015383044418049446 -0.010365316857899487  0.
-0.020085930531368187 -0.015617129102693972  0.
-0.026047112416678567 -0.022630884821128606  0.
0.04273413830364986 -0.0366782253041691  0.
0.03352518859456411 -0.029081588405102218  0.
0.025645592023123696 -0.022423676905067174  0.
0.01897875730483474 -0.017097427645898087  0.
0.013192641849502999 -0.013208319310219476  0.
0.007880269198597347 -0.010577336881900688  0.
0.002802904574211098 -0.009081589813041569  0.
-0.002204471864579186 -0.008660817195600148  0.
-0.007280923520865635 -0.009308340698747442  0.
-0.012565579726758126 -0.011064504757789641  0.
-0.01821711468378789 -0.0140110146777993  0.
-0.024434174873398995 -0.018261524732721354  0.
-0.0314843987680273 -0.023938345048066897  0.
-0.03976104480932567 -0.031105152300794928  0.
0.055689480238344045 -0.04729786759039558  0.
0.04508900212189818 -0.03976490556026241  0.
0.035413586052243894 -0.03314089801752061  0.
0.02665714943371748 -0.027640242950255384  0.
0.018672079288499593 -0.023395002094976608  0.
0.011225491663924806 -0.020427217527786107  0.
0.004074817075642065 -0.018685566709626154  0.
-0.002976392936776416 -0.018133081544365763  0.
-0.010099776273904551 -0.018761945904222227  0.
-0.017462273951665393 -0.020593068552267883  0.
-0.025241306925904938 -0.02367046487503541  0.
-0.03363664098217518 -0.028050243811912033  0.
-0.042878014450012505 -0.03377975954309833  0.
-0.053216479288488536 -0.040856576950548  0.
0.06848402912117718 -0.059599431630906  0.
0.05631706616710674 -0.05211746119253489  0.
0.0448837162797156 -0.04557443644732972  0.
0.0341914882997184 -0.0400869148445701  0.
0.024152059673780122 -0.03575478140419872  0.
0.014608474322680927 -0.032636563270987906  0.
0.005370231209737651 -0.03074824692162534  0.
-0.003756673843272032 -0.030084282490524066  0.
-0.012955563552959888 -0.030643974168397543  0.
-0.022405396061395074 -0.032438326445411336  0.
-0.03228877803395486 -0.03548802989908506  0.
-0.042796526286638936 -0.039815837567005116  0.
-0.054123640962867314 -0.04543345695032324  0.
-0.06643924167910904 -0.05232370912525511  0.
0.08107088600457647 -0.07379033295580706  0.
0.06722784070243705 -0.06636176561746938  0.
0.05403037434261478 -0.05990341039419363  0.
0.041468217179753845 -0.05447929948155591  0.
0.029467446171898674 -0.050158977956638  0.
0.017903099548667686 -0.046998788711119135  0.
0.006617101683066079 -0.04503420282392099  0.
-0.004564958866763966 -0.04428285007108414  0.
-0.015822043481638154 -0.044753782988301495  0.
-0.02733305737332927 -0.04645553638004275  0.
-0.03927759775227902 -0.04939728930362916  0.
-0.051835190071250425 -0.053585335823773526  0.
-0.06517694958271866 -0.05901694785153442  0.
-0.07943697783705472 -0.06567617979023108  0.
0.09339566106709736 -0.08994647681028134  0.
0.0778197659435709 -0.08257603798738632  0.
0.06285112915516286 -0.07619595745699934  0.
0.04845487378981619 -0.07084240703912946  0.
0.034554700247853155 -0.06656308868132244  0.
0.021037754200928925 -0.06340400628037975  0.
0.007763748491512957 -0.0614017769017012  0.
-0.00542543133704224 -0.060581538721808596  0.
-0.01869755828585837 -0.06095889363021028  0.
-0.032224408275547435 -0.06254317696221284  0.
-0.04617822061858397 -0.065339308379469  0.
-0.06072779923761688 -0.06934708293262767  0.
-0.07602985633432857 -0.07455961718694044  0.
-0.09220897550049574 -0.08096536094019655  0.
0.10541250741793201 -0.10808085751640517  0.
0.08808364111772034 -0.10077175992711317  0.
0.07134665002018502 -0.09446167273549502  0.
0.05514410386832912 -0.08917210311625853  0.
0.03939200660092284 -0.08493608016263708  0.
0.023980700428885334 -0.08178917865742896  0.
0.008779255865809391 -0.07976328409819192  0.
-0.006359024332690108 -0.07888335544639537  0.
-0.021591089754336674 -0.07916666318886344  0.
-0.03707927148626161 -0.08062341981426344  0.
-0.05298694644491891 -0.08325764523479887  0.
-0.06947363829696244 -0.08706762215353259  0.
-0.08668775759155886 -0.09204663772575443  0.
-0.10475483366557864 -0.09818685991183355  0.
0.11708645674457327 -0.12817463128655338  0.
0.09800840556685095 -0.12092792763521325  0.
0.07951663366008137 -0.11467978460225149  0.
0.06153574124109419 -0.10944397887228131  0.
0.043973410827900544 -0.10524385527424047  0.
0.026719474471104506 -0.10210639335574301  0.
0.009647782436032174 -0.10005754210245928  0.
-0.007380683386876055 -0.0991191459661091  0.
-0.024514101175620213 -0.09930737813998906  0.
-0.04190597494159793 -0.10063226803267118  0.
-0.059711210703698316 -0.10309787712947824  0.
-0.07808165305807943 -0.10670290413724474  0.
-0.09716070637631836 -0.11144214184392252  0.
-0.11707734064454307 -0.11731015230538411  0.
0.12839199986538471 -0.15019257356309618  0.
0.10758366039940434 -0.1430074964891555  0.
0.08735956678929513 -0.13681395371657987  0.
0.06763099167822406 -0.13162155397596303  0.
0.04829841224103437 -0.1274471982439962  0.
0.02924989570211354 -0.12431122593818635  0.
0.010361681099780504 -0.12223406420518919  0.
-0.008500100699331046 -0.12123369304741888  0.
-0.02747693108191017 -0.12132402802746138  0.
-0.046715000912148454 -0.1225141030131796  0.
-0.06636202831832015 -0.12480792162273747  0.
-0.08656368721245034 -0.12820494596925822  0.
-0.10745995320075843 -0.13270147409986124  0.
-0.12918246888150148 -0.13829340014158747  0.
0.13931084849247788 -0.17409090123989146  0.
0.11680049652107755 -0.16696541641600277  0.
0.0948731669453739 -0.1608198742153384  0.
0.07343068521551849 -0.1556614906777828  0.
0.05236789255444414 -0.15150276075342936  0.
0.03157093774064804 -0.1483589852219052  0.
0.010917256114683837 -0.14624592131465086  0.
-0.009723513945827392 -0.14517782318394887  0.
-0.03048784488373618 -0.1451660416186443  0.
-0.05151616942157817 -0.14621819234530625  0.
-0.07295044021300838 -0.14833789329126662  0.
-0.09493144712820267 -0.151525098825047  0.
-0.11759645165232802 -0.15577715115044666  0.
-0.14107821410559643 -0.16109059454946334  0.
0.1498300218436643 -0.19982151583697674  0.
0.1256516755257916 -0.1927528258522294  0.
0.10205488068190341 -0.18664937587611558  0.
0.07893498806366703 -0.1815168332586761  0.
0.05618269907360262 -0.17736454697822346  0.
0.03368253029227315 -0.1742039728785352  0.
0.011312558110999323 -0.17204705141857762  0.
-0.011055119378198563 -0.17090474568031402  0.
-0.03355323539003419 -0.17078592095763678  0.
-0.056317780951919555 -0.17169662211550749  0.
-0.07948619263444034 -0.1736397965876224  0.
-0.10319539511822193 -0.17661549795101655  0.
-0.12758028884859218 -0.18062160474628405  0.
-0.15277343937431428 -0.18565491490340028  0.
0.1599403309378885 -0.22733420909053295  0.
0.13413148415536394 -0.22031915125629872  0.
0.10890220172718626 -0.21425252456222402  0.
0.08414352562709626 -0.20913881955360583  0.
0.05974325960108636 -0.20498501243195852  0.
0.03558470010591629 -0.20179956641540847  0.
0.011546334714499519 -0.19959132291732704  0.
-0.012497945959965737 -0.19836843364321985  0.
-0.03667805883819891 -0.1981375023052207  0.
-0.06112658336676567 -0.19890300156044066  0.
-0.08597743974677362 -0.20066702339471745  0.
-0.11136446978385901 -0.2034293891540701  0.
-0.1374204492618183 -0.20718810952999026  0.
-0.16427694387670067 -0.2119400133088761  0.
0.16963533736926534 -0.2565780185672641  0.
0.1422355526307103 -0.24961335204107482  0.
0.11541289654429471 -0.24357888221877103  0.
0.08905562771937732 -0.23847806362774682  0.
0.06304961087062273 -0.23431597389702388  0.
0.03727732079692187 -0.23109868011402804  0.
0.011617582063205487 -0.22883248607387838  0.
-0.014054351056427458 -0.22752316222466332  0.
-0.03986624124259595 -0.22717530568757613  0.
-0.06594803406743976 -0.2277918892296807  0.
-0.09243090190825652 -0.22937405308363973  0.
-0.11944620454172872 -0.23192115609176206  0.
-0.14712481307365124 -0.23543106060747918  0.
-0.17559693983017127 -0.23990049313419906  0.
0.17891051633437072 -0.2875016760052959  0.
0.14996057226153792 -0.2805842888938421  0.
0.1215850564830714 -0.27457789148991235  0.
0.09367049098068983 -0.2694849390004951  0.
0.06610150622374843 -0.26530890425812403  0.
0.03876008699714257 -0.262053873408049  0.
0.011525386481880524 -0.25972403711662845  0.
-0.015726259535659225 -0.25832313937495144  0.
-0.04312093465855948 -0.2578540089467085  0.
-0.0707865299024968 -0.25831822003299587  0.
-0.09885205302502213 -0.2597159272948943  0.
-0.12744685085756674 -0.2620458851734439  0.
-0.15670012028490485 -0.26530562585270656  0.
-0.1867406718751713 -0.2694916805214947  0.
0.18776277046955714 -0.32005407922279155  0.
0.1573041388452239 -0.3131811260785413  0.
0.1274171714753596 -0.30719928416658737  0.
0.09798735377461676 -0.30211000450551845  0.
0.06889858067267753 -0.29791534134334136  0.
0.04003259956682101 -0.29461769025446854  0.
0.011268904215712127 -0.2922194451121731  0.
-0.017515281104298855 -0.2907226047930773  0.
-0.04644470575106154 -0.29012843474389255  0.
-0.07564563791718755 -0.29043721705028064  0.
-0.10524536418690744 -0.29164812522082106  0.
-0.13537159188352746 -0.29375923030465745  0.
-0.16615207996019793 -0.29676761901871734  0.
-0.19771435662071968 -0.30066954943196855  0.
0.19619005147696342 -0.3541844229750293  0.
0.164264586432181 -0.34735341661914587  0.
0.13290813308859764 -0.341393169346567  0.
0.10200559635719886 -0.3363041130023495  0.
0.07144047569769858 -0.332087006081658  0.
0.041094460475933445 -0.3287427595730617  0.
0.010847396057382093 -0.32627220580099836  0.
-0.019422744148557543 -0.32467581763773623  0.
-0.049839630425054515 -0.3239534667380978  0.
-0.08052823297361686 -0.3241042429284364  0.
-0.11161445769851472 -0.325126363294614  0.
-0.14322467420125554 -0.3270171763819883  0.
-0.17548543199246797 -0.32977324949813797  0.
-0.20852316604999066 -0.33339049573694535  0.
0.20419110060048973 -0.3898422205748905  0.
0.1708408590503634 -0.3830510910203684  0.
0.13805722452854527 -0.37711002292166756  0.
0.105724808796115 -0.3720184180617078  0.
0.07372693843729523 -0.3677758255889782  0.
0.041945363166790754 -0.36438182151589116  0.
0.010260281676650346 -0.3618358528123642  0.
-0.021449690526135354 -0.3601370360872717  0.
-0.05330733828382233 -0.3592839866086996  0.
-0.08543658189485999 -0.3592746903228042  0.
-0.11796221133834969 -0.3601064412513802  0.
-0.15100950430037913 -0.36177584951190145  0.
-0.18470400960456332 -0.36427891380902755  0.
-0.21917126800387968 -0.36761113580001553  0.
0.21176531501165421 -0.4269774888654536  0.
0.1770324505971284 -0.4202246139720047  0.
0.1428641337531003 -0.4143008410536755  0.
0.1091448557396179 -0.4092045393990009  0.
0.07575790839577902 -0.4049341142274952  0.
0.0425851727379586 -0.40148791856643334  0.
0.009507191393374125 -0.39886414782078367  0.
-0.02359686524289285 -0.3970606942229421  0.
-0.056849047597624394 -0.3960750271162085  0.
-0.09037241882741916 -0.3959041042716072  0.
-0.12429086135880711 -0.3965443317609663  0.
-0.15872876138463332 -0.39799157782104094  0.
-0.19381084885080674 -0.40024123812949636  0.
-0.22966194950000365 -0.4032883427554991  0.
0.2189125791529038 -0.4655404707052239  0.
0.18283929494451698 -0.4588246951319131  0.
0.14732890668080756 -0.4529168515261387  0.
0.11226588212008781 -0.44781428481293917  0.
0.07753355726100573 -0.44351431020643467  0.
0.04301398022517047 -0.4400141448942911  0.
0.008588018309826818 -0.4373108364693745  0.
-0.02586467768791898 -0.435401156340003  0.
-0.06046554473202216 -0.4342815168131241  0.
-0.09533694118442253 -0.4339479113166601  0.
-0.13060200758636542 -0.4343958914603389  0.
-0.1663844015867714 -0.4356205865754948  0.
-0.20280818656087554 -0.43761676477362327  0.
-0.2399976214064841 -0.440378932621473  0.
0.22563321881251353 -0.5054817229694776  0.
0.18826174351830832 -0.4988023624056294  0.
0.1514519560855291 -0.49290958451817163  0.
0.1150883478970183 -0.48779972709722513  0.
0.07905433785541115 -0.48346906323075944  0.
0.0432321521809388 -0.4799137449741292  0.
0.007502956162064765 -0.4771297546722657  0.
-0.028253184617053315 -0.47511282553378076  0.
-0.0641571927424072 -0.47385838493135707  0.
-0.1003308440118559 -0.4733615155596784  0.
-0.13689666979496412 -0.4736169451156864  0.
-0.1739777309622896 -0.4746190702738875  0.
-0.2116975483255811 -0.476362014064636  0.
-0.2501799291435556 -0.4788397177239664  0.
0.23192798237763312 -0.546752292538359  0.
0.1933005580106969 -0.540109125890224  0.
0.15523407131516195 -0.5342310329876483  0.
0.11761305315717066 -0.5291133683647545  0.
0.08032101763851687 -0.5247514070540316  0.
0.043240363467643574 -0.5211402954930278  0.
0.006252522500267103 -0.5182750183121726  0.
-0.030762083638537777 -0.5161503377927007  0.
-0.06792394574990819 -0.5147607556832928  0.
-0.10535435632566947 -0.5141004892439722  0.
-0.14317534440494328 -0.5141634697362262  0.
-0.18150947996292263 -0.5149433692045912  0.
-0.22047983970102852 -0.5164336537980091  0.
-0.2602098663438315 -0.5186276664382532  0.
0.237797926944234 -0.5893031260839628  0.
0.19795682226396752 -0.5826963923570403  0.
0.1586763611388465 -0.5768330709216615  0.
0.11984111189408249 -0.5717075642236662  0.
0.08133467947376373 -0.5673141919497738  0.
0.043039618981309966 -0.5636471472132484  0.
0.004837595023380279 -0.5607004740549115  0.
-0.03339066764490986 -0.5584680200785156  0.
-0.0717652977429073 -0.5569434112710371  0.
-0.11040718582068344 -0.5561200384276315  0.
-0.149437944897127 -0.5559910614168427  0.
-0.18897973867291826 -0.5565494372018774  0.
-0.22915527672957314 -0.5577879685249465  0.
-0.27008770049994385 -0.559699377317825  0.
0.24324450874143325 -0.6330858020047649  0.
0.20223201427882975 -0.6265161788172987  0.
0.16178031399686368 -0.6206681604721888  0.
0.1217740002609734 -0.6155352306166725  0.
0.0820967550763811 -0.6111107948516186  0.
0.04263126806434095 -0.6073881399813247  0.
0.0032594023597730315 -0.6043604190714156  0.
-0.036137861723408285 -0.6020206132965772  0.
-0.0756803500825014 -0.6003615158151152  0.
-0.11548861844805806 -0.5993757252396191  0.
-0.15568393365051103 -0.5990556533022242  0.
-0.19638812031630162 -0.5993935527605132  0.
-0.23772358013554393 -0.6003815608524261  0.
-0.2798131988650321 -0.6020117634005843  0.
0.24826946219520762 -0.6780516674657866  0.
0.206127910885897 -0.6715202627120831  0.
0.1645477291391253 -0.6656885075680813  0.
0.12341351614660125 -0.6605490047278643  0.
0.0826090120283107 -0.6560942864363055  0.
0.04201701642729812 -0.6523167768459525  0.
0.0015195577813537672 -0.6492087825328623  0.
-0.03900217062240057 -0.646762460904059  0.
-0.07966774247995276 -0.6449698103826634  0.
-0.12059743435382704 -0.6438226685236146  0.
-0.16191222345778677 -0.643312721298657  0.
-0.20373364848091466 -0.6434315298293994  0.
-0.24618384821954972 -0.6441705683379979  0.
-0.28938548468435943 -0.6455212792554239  0.
0.2528748836599819 -0.7241525544369101  0.
0.20964665069415092 -0.717660883559369  0.
0.16698076468307643 -0.7118467591823986  0.
0.12476181184127691 -0.7067019412262809  0.
0.0828735699651281 -0.7022181286967314  0.
0.04119892391376231 -0.6983869241120809  0.
-0.00037996375859986596 -0.6951998282871418  0.
-0.04198172466107 -0.6926482135341242  0.
-0.08372572364498969 -0.6907233182851258  0.
-0.12573200441873836 -0.6894162481459135  0.
-0.1681213004141689 -0.6887179854641896  0.
-0.2110149061075161 -0.6886194140522446  0.
-0.2545347311493639 -0.6891113513801777  0.
-0.29880323521637125 -0.6901845955900019  0.
0.2570631859491967 -0.7713404643059926  0.
0.21279069741081577 -0.7648904324489921  0.
0.16908190898270864 -0.7590956940945125  0.
0.12582137530929854 -0.7539472054847521  0.
0.08289289157565512 -0.7494358713926236  0.
0.04017940423221898 -0.745552511665952  0.
-0.002436818620936765 -0.7422878593306051  0.
-0.045074267011457815 -0.7396325374853149  0.
-0.08785213422581893 -0.7375770571406722  0.
-0.13089026984334035 -0.7361118200243386  0.
-0.1743092006439068 -0.7352271274136079  0.
-0.21823000934156453 -0.7349132021371116  0.
-0.26277440101355304 -0.7351602148310364  0.
-0.308064647097983 -0.735958323186694  0.
0.2608370668147882 -0.8195671644857242  0.
0.2155628134547845 -0.8131610524773055  0.
0.17085396250249765 -0.8073878266162273  0.
0.12659502039200454 -0.8022376795919485  0.
0.0826697810497515 -0.7977007607115353  0.
0.038961230923141695 -0.7937671446940753  0.
-0.00464828204432671 -0.7904268328107992  0.
-0.0482771359684914 -0.7876697329571777  0.
-0.0920443848972924 -0.7854856600592004  0.
-0.1360697169407682 -0.7838643398554647  0.
-0.1804734823281556 -0.782795416179742  0.
-0.2253765768499513 -0.7822684695393907  0.
-0.2709005181205334 -0.7822730371378367  0.
-0.31716739675992006 -0.7827986450120942  0.
0.26419957411691636 -0.8687850319762017  0.
0.2179661057349038 -0.8624254708912135  0.
0.1723000659287157 -0.8566762339034192  0.
0.12708589748640475 -0.8515267881496394  0.
0.0822073769895539 -0.8469665649109561  0.
0.03754751205356107 -0.8429849296891314  0.
-0.0070112923297327235 -0.8395711862588422  0.
-0.05158732881646654 -0.8367145599006658  0.
-0.09629954073667954 -0.8344042001794111  0.
-0.14126748271215134 -0.8326291852048854  0.
-0.18661135284285407 -0.8313785265768913  0.
-0.2324518783133743 -0.8306411836359431  0.
-0.278910399631177 -0.8304060765487415  0.
-0.32610882850114903 -0.830662111275409  0.
0.267154027392317 -0.9189460563643991  0.
0.220003966583639 -0.9126360163460048  0.
0.17342365868111567 -0.9069135789852608  0.
0.12729747077552014 -0.9017675249974332  0.
0.08150914888008391 -0.8971866042572423  0.
0.03594170599554652 -0.8931595075813845  0.
-0.009522416016830256 -0.8896748739890877  0.
-0.05500144853426042 -0.8867212777107683  0.
-0.10061425024786592 -0.88428723366786  0.
-0.14648026703375933 -0.8823612019419022  0.
-0.19271956479330268 -0.8809315894847088  0.
-0.23945271463566767 -0.8799867587382035  0.
-0.28680088371406337 -0.8795150325821609  0.
-0.33488580051410166 -0.8795047114575599  0.
0.2697040708426579 -0.9700027082873077  0.
0.22168010778773423 -0.9637454760876842  0.
0.17422849686018577 -0.9580529647836696  0.
0.12723351901809252 -0.9529133059543203  0.
0.08057888068984467 -0.9483146034989641  0.
0.034147587989609963 -0.94424490612197  0.
-0.012177898391476974 -0.9406922189176821  0.
-0.0585157717563662 -0.9376444955881137  0.
-0.10498483149807505 -0.9350896475374749  0.
-0.15170443785317278 -0.9330155484230189  0.
-0.1987945410125544 -0.9314100313918103  0.
-0.2463755629396371 -0.9302608900218686  0.
-0.29456849391569273 -0.9295558729077062  0.
-0.3434948670307353 -0.9292826915700523  0.
0.2718536369851066 -1.021907567009073  0.
0.22299853234345185 -1.0157067295947857  0.
0.17471862988414913 -1.0100475696091562  0.
0.12689811810988963 -1.00491760664393  0.
0.07942066015043585 -1.0003043320758813  0.
0.032169247000812785 -0.9961951823108611  0.
-0.014973658607441103 -0.9925775567084586  0.
-0.06212623608814724 -0.989438817677959  0.
-0.10940725249130713 -0.9867663050709274  0.
-0.156936005898037 -0.9845473407707366  0.
-0.2048323448904109 -0.9827692196027825  0.
-0.2532165433223313 -0.981419199373677  0.
-0.302209402010489 -0.9804844814078923  0.
-0.35193223621893865 -0.9799522061174165  0.
0.27360692609588416 -1.0746129094744263  0.
0.22396351824709643 -1.0684723414702089  0.
0.1748983885652237 -1.0628502435680982  0.
0.12629563293749824 -1.0577335616202788  0.
0.07803887563518845 -1.0531092060944796  0.
0.030011089032506634 -1.048964026904913  0.
-0.017905279088568787 -1.0452848419737257  0.
-0.06582842237083822 -1.0420584498080585  0.
-0.11387710746775294 -1.0392716519843865  0.
-0.16217059689902966 -1.0369112577721058  0.
-0.21082865057274233 -1.0349640658864911  0.
-0.2599713885397708 -1.0334168386206275  0.
-0.30971939751498256 -1.032256262408375  0.
-0.3601937369639818 -1.0314689259434968  0.
0.27496842927700166 -1.1280716364188652  0.
0.2245796271464762 -1.1219954788313646  0.
0.1747723770976825 -1.1164144233298408  0.
0.12543069277563262 -1.1113148801720694  0.
0.0764381769254403 -1.1066832064830632  0.
0.02767778574997933 -1.1025056845831092  0.
-0.02096806746960978 -1.0987685687962707  0.
-0.06961762715244962 -1.0954581180102643  0.
-0.11838970144573722 -1.0925606305342563  0.
-0.16740355087953632 -1.0900624486757797  0.
-0.2167788600180955 -1.0879499269891302  0.
-0.2666355811344242 -1.0862093828234105  0.
-0.3170940452298657 -1.0848270275688048  0.
-0.36827499501262084 -1.0837889186164222  0.
0.2759428846796086 -1.1822361914613817  0.
0.22485167576211135 -1.176228842392061  0.
0.17434545295924958 -1.1706930695063726  0.
0.12430818138692516 -1.1656147903301495  0.
0.07462347986970616 -1.1609798301215943  0.
0.02517429801763823 -1.1567739114602476  0.
-0.024157011587200853 -1.1529827327005202  0.
-0.07348879609840542 -1.1495920323764048  0.
-0.12293996438525473 -1.1465876428161792  0.
-0.1726298212252899 -1.1439554944193808  0.
-0.22267799187617338 -1.1416815638711928  0.
-0.27320423636140545 -1.1397517896010003  0.
-0.32432856413108074 -1.1381519594325327  0.
-0.3761713053129064 -1.1368676223569787  0.
0.27653529374048785 -1.2370594978732874  0.
0.22478473449159167 -1.2311255931347609  0.
0.17362270343380723 -1.2256395935666144  0.
0.12293319320222809 -1.2205869712181767  0.
0.07259990897542838 -1.2159530300019425  0.
0.022505811569691576 -1.2117229222219228  0.
-0.02746684676524901 -1.207881781460675  0.
-0.07743659391185684 -1.204414836905867  0.
-0.12752252696635355 -1.201307494882279  0.
-0.1778440622617038 -1.198545342256142  0.
-0.22852078808414536 -1.196114065045694  0.
-0.2796722342786383 -1.1939993118728618  0.
-0.33141798821668156 -1.1921865164647565  0.
-0.383877818926944 -1.1906607471629262  0.
0.27675090645984396 -1.2924945422420917  0.
0.2243841098746784 -1.2866389381644812  0.
0.1726094140410987 -1.2812074484809428  0.
0.12131099508075083 -1.2761851549790504  0.
0.07037276436729693 -1.2715568311076655  0.
0.01967771958373384 -1.2673070188613673  0.
-0.030892051703292338 -1.26342025266681  0.
-0.08145537812980656 -1.259881250188034  0.
-0.13213167683721375 -1.2566750345485453  0.
-0.18304057656900677 -1.2537869359284375  0.
-0.23430166314101453 -1.2512024670847959  0.
-0.28603418145817927 -1.248907110564763  0.
-0.3383571470667086 -1.2468860441209098  0.
-0.3913895408958623 -1.2451238934191964  0.
0.2765952378411997 -1.3484939256163382  0.
0.2236553414618695 -1.3427216776959405  0.
0.1713110376899223 -1.3373496821423814  0.
0.11944698077054329 -1.332362695034972  0.
0.06794748024808608 -1.3277449175336997  0.
0.016695600118957602 -1.3234801957193938  0.
-0.034426843806954106 -1.3195523920251646  0.
-0.0855391662783042 -1.315945689859548  0.
-0.1367613035934274 -1.3126447739153029  0.
-0.188213249703162 -1.3096348290401572  0.
-0.24001464440604395 -1.3069013547491592  0.
-0.2922843731828323 -1.3044298426172716  0.
-0.3451406615657423 -1.3022053581873185  0.
-0.39870135943008406 -1.3002121435914538  0.
0.27607410955711853 -1.4050108341358736  0.
0.22260418521658884 -1.399327153921406  0.
0.16973311596555998 -1.394019886675577  0.
0.11734655548018552 -1.3890735310066211  0.
0.06532950044590023 -1.3844716193257358  0.
0.013565103030169735 -1.3801971485378681  0.
-0.03806526984153281 -1.37623318054692  0.
-0.08968170218842006 -1.3725633102176071  0.
-0.14140494776574583 -1.3691719269664637  0.
-0.19335559729608962 -1.3660442115239624  0.
-0.24565343946420443 -1.3631658678805567  0.
-0.2984169058602862 -1.3605226464547777  0.
-0.35176312156321454 -1.3580997164908952  0.
-0.40580829413547026 -1.3558810373725874  0.
0.2751937446685846 -1.4619979075438356  0.
0.2212366277290108 -1.4564080994050599  0.
0.1678812240044046 -1.4511710468703707  0.
0.11501505657151179 -1.44627105127605  0.
0.06252421341741236 -1.4416907961514203  0.
0.010291924204277037 -1.4374121833791493  0.
-0.04180117897963942 -1.4334172705382429  0.
-0.09387637260736656 -1.429688962576033  0.
-0.14605566756959054 -1.426211385437285  0.
-0.19846060020145279 -1.4229698873468202  0.
-0.2512112694681488 -1.4199506673614761  0.
-0.3044255459071952 -1.4171400900013018  0.
-0.3582190255279715 -1.4145237572511302  0.
-0.4127055241328146 -1.4120855262677887  0.
0.2739609267246538 -1.5194083114684247  0.
0.219558869801903 -1.513917647585644  0.
0.1657608361465871 -1.5087565287516191  0.
0.11245757186275462 -1.503909072843512  0.
0.059536768413160156 -1.499356816179049  0.
0.006881643770008493 -1.4950802078297827  0.
-0.04562834862516685 -1.4910600061312258  0.
-0.09811628927019951 -1.4872782568421972  0.
-0.150706078602293 -1.4837188196902384  0.
-0.2035207185528216 -1.4803673977965952  0.
-0.2566808939913379 -1.4772110555248457  0.
-0.3103038194050103 -1.4742372678656352  0.
-0.36450299457656893 -1.4714325727149644  0.
-0.41938876830079747 -1.4687810541940536  0.
0.2723832829770625 -1.5771954043189684  0.
0.2175773418162975 -1.571808910108298  0.
0.1633772154711645 -1.5667295972925108  0.
0.10967880789534348 -1.5619412936508055  0.
0.056371961507855256 -1.5574239443060076  0.
0.0033396385620171097 -1.553156086417143  0.
-0.04954053802894476 -1.549116800142018  0.
-0.10239429336136308 -1.5452870126389353  0.
-0.15534829477507503 -1.5416502306554187  0.
-0.208527772769515 -1.5381926630025493  0.
-0.26205446900365253 -1.5349026658325047  0.
-0.3160449217309699 -1.5317694916880138  0.
-0.3706098331082618 -1.5287813785105433  0.
-0.4258545886425999 -1.5259232372775244  0.
0.2704696882249865 -1.6353137746099895  0.
0.21529868829288745 -1.6300358520973413  0.
0.1607352875464851 -1.6250441453487618  0.
0.10668298437708183 -1.6203218238103667  0.
0.05303415106008214 -1.615846658317705  0.
-0.00032902302656370546 -1.6115947988447212  0.
-0.05353163296414256 -1.6075432606145585  0.
-0.10670311398134254 -1.6036715005256188  0.
-0.1599740481612058 -1.5999624084554571  0.
-0.21347298627181813 -1.5964026756766811  0.
-0.2673235287845834 -1.5929823261698872  0.
-0.3216417321440097 -1.5896932168540587  0.
-0.376534737562948 -1.5865264225941114  0.
-0.4321009782605564 -1.5834687643375271  0.
0.26823084421013293 -1.693719384631648  0.
0.21272980160589366 -1.688553186429437  0.
0.15783969997282976 -1.6836542687068037  0.
0.1034740473928455 -1.6790042963027227  0.
0.049527527129325635 -1.6745782415541226  0.
-0.004119409056356435 -1.6703496005228813  0.
-0.05759567165437928 -1.6662931505886178  0.
-0.11103556874727018 -1.66238653643277  0.
-0.1645749349775174 -1.6586114601926554  0.
-0.21834712950160567 -1.6549545885936991  0.
-0.272478965245899 -1.651407622268358  0.
-0.327086719211622 -1.6479658594255546  0.
-0.38227338031936364 -1.6446248320158474  0.
-0.4381279837185004 -1.6413751957462637  0.
0.265679758915142 -1.7523740465274336  0.
0.2098777322679313 -1.7473204235085331  0.
0.1546950905563831 -1.7425176299811618  0.
0.10005631443508023 -1.7379442481546945  0.
0.04585684189014015 -1.7335720939455328  0.
-0.008026248425424482 -1.7293723970972377  0.
-0.061726899351167146 -1.7253181644017597  0.
-0.11538523070063927 -1.7213852372591472  0.
-0.1691434573200797 -1.717553293463966  0.
-0.22314153425838487 -1.7138074145629068  0.
-0.27751171550365766 -1.7101397884078273  0.
-0.3323723060613258 -1.7065494285342375  0.
-0.387822323099255 -1.7030384194947594  0.
-0.4439388389209789 -1.6996046057382328  0.
0.2628319470429138 -1.8112496117459205  0.
0.20674981668586542 -1.8063053360537868  0.
0.15130733864903623 -1.8015974622868691  0.
0.09643650155048963 -1.7970991535043184  0.
0.042029574074231524 -1.7927797408322732  0.
-0.012042225340612098 -1.7886100021340061  0.
-0.06591902506002931 -1.7845629193059955  0.
-0.11974703365768231 -1.7806134553221338  0.
-0.17367491935911752 -1.776738734631812  0.
-0.22785036516942841 -1.772919519232271  0.
-0.2824144178762409 -1.7691441119423155  0.
-0.3374915328585555 -1.7654130196581301  0.
-0.39317915607085624 -1.7617368528215034  0.
-0.44954081178529426 -1.7581263384626031  0.
0.259704304016769 -1.87033873191852  0.
0.20335430971164453 -1.8654932508291515  0.
0.14768671122027202 -1.8608686521828357  0.
0.09262809834079147 -1.8564306269781543  0.
0.038060322879509376 -1.8521494061486534  0.
-0.016154456743763635 -1.8479997583778147  0.
-0.07016325035216667 -1.8439584249316434  0.
-0.12411750242942843 -1.8400019109655175  0.
-0.17817060799744958 -1.836105338359322  0.
-0.23247636006068606 -1.832242857692708  0.
-0.28718655104727187 -1.8283910146785987  0.
-0.3424406320023447 -1.8245399659739359  0.
-0.3983428303998361 -1.820707168807127  0.
-0.4549455483532062 -1.8169255194285423  0.
0.25631080132630274 -1.9296760015909487  0.