<?xml version="1.0"?>
<VTKFile type="UnstructuredGrid" version="0.1" byte_order="LittleEndian" compressor="vtkZLibDataCompressor">
<UnstructuredGrid>
<Piece NumberOfPoints="714" NumberOfCells="1300">
<PointData>
<DataArray type="Float64" Name="displacement" NumberOfComponents="3" format="ascii" >
0.0 0.0  0.
0.0 0.0  0.
0.0 0.0  0.
0.0 0.0  0.
0.0 0.0  0.
0.0 0.0  0.
0.0 0.0  0.
0.0 0.0  0.
0.0 0.0  0.
0.0 0.0  0.
0.0 0.0  0.
0.0 0.0  0.
0.0 0.0  0.
0.0 0.0  0.
0.029479427380273628 -0.03292781702933796  0.
0.017284937286290915 -0.018349114354576063  0.
0.01283555887782126 -0.010565470435836116  0.
0.009605831768785322 -0.0054105143996881835  0.
0.006775634327007661 -0.0018832508644153084  0.
0.00412211393602462 0.0004467876522238179  0.
0.0015458337760795467 0.0017878695969697881  0.
-0.001018949183039184 0.002218991245976372  0.
-0.0036329325823393002 0.0017171909929616321  0.
-0.006368869109930536 0.00015310308075714376  0.
-0.009331889576476234 -0.002741676582173724  0.
-0.012697529732029963 -0.007445883923793619  0.
-0.016806926747054474 -0.014785418202888184  0.
-0.02237474288494462 -0.0262389619450567  0.
0.0549609686051384 -0.051532062908731024  0.
0.04053109547825838 -0.03726290022537754  0.
0.029922518158479492 -0.025334100669325506  0.
0.02219607846348454 -0.01688739219751747  0.
0.015598460427914495 -0.010899169573298595  0.
0.009531407097049895 -0.00685585988668895  0.
0.003708381684635079 -0.004497646140013861  0.
-0.0020593255796978864 -0.00372117735028355  0.
-0.007935069184142999 -0.004545257674838042  0.
-0.014095187033408282 -0.007103124385796814  0.
-0.020763377869181438 -0.011648790024105137  0.
-0.028258791961765287 -0.01856847554672166  0.
-0.037090889116754906 -0.028376765705933397  0.
-0.048224822717542706 -0.04162039049996958  0.
0.07956640051868762 -0.06962796976969501  0.
0.06295290404607566 -0.055510638541716305  0.
0.048602936428991356 -0.043074683100282236  0.
0.03634865014549363 -0.033014923892875574  0.
0.025621740424885263 -0.025528755902722324  0.
0.015723159084579108 -0.020328283504073008  0.
0.006230881013600831 -0.017214922149570967  0.
-0.0031527053012237374 -0.0160995344160113  0.
-0.012682899410220654 -0.016990085903173732  0.
-0.022618432409732183 -0.019982339479368103  0.
-0.033255979298878795 -0.02525155260635994  0.
-0.04496591565240634 -0.03303687136463369  0.
-0.05824175858357879 -0.04359968416881046  0.
-0.07379707399214211 -0.057099541101592884  0.
0.10382545936319842 -0.08999348695402147  0.
0.08462782307598751 -0.0759078465994751  0.
0.0669695497778743 -0.06344273430601267  0.
0.05087458479389811 -0.052984519926447995  0.
0.036100384293140324 -0.04478156343626887  0.
0.02224708702317368 -0.038893114304633956  0.
0.008891913059912385 -0.0352529658290916  0.
-0.004316526522782864 -0.03381830540345772  0.
-0.017691566955798592 -0.03459846786956892  0.
-0.03154240508805463 -0.03765614303926341  0.
-0.046200150241890885 -0.04309867998633459  0.
-0.062037938485347735 -0.05105911385777077  0.
-0.0794830388399202 -0.06165873801675286  0.
-0.09900146940258758 -0.07493139405731561  0.
0.12774176931354328 -0.11360667132532483  0.
0.10563124975751859 -0.09951675403985465  0.
0.0847201272496693 -0.08710109140356984  0.
0.06504921394151807 -0.07657593560210736  0.
0.04647801686343809 -0.0681327769818843  0.
0.02873783876892175 -0.061893810930682885  0.
0.011495072122735614 -0.05790919388045817  0.
-0.005596116945892191 -0.056192895036181835  0.
-0.022869147785854218 -0.056768002337880714  0.
-0.0406545104466092 -0.059679702895798506  0.
-0.05929273572184867 -0.06499254090933379  0.
-0.07914146856960777 -0.07277737262564161  0.
-0.10056740110385025 -0.0830881892049307  0.
-0.12389279401379273 -0.0959301043836724  0.
0.1512000639243749 -0.14086180735585901  0.
0.12596812348782568 -0.12675789958577247  0.
0.1017819952869286 -0.11438912014360796  0.
0.07864388086623886 -0.10387934501804964  0.
0.05643498441575202 -0.09536535495617765  0.
0.03494026658238832 -0.08896361360764984  0.
0.013881044795846046 -0.08475651546556368  0.
-0.007055219681251497 -0.08279714199941023  0.
-0.02819413632912794 -0.0831249611119562  0.
-0.049865901198622054 -0.08577975994504147  0.
-0.07240569127042287 -0.09080402526404391  0.
-0.09615147363072032 -0.09823710558727825  0.
-0.12142858549247043 -0.10810481666233517  0.
-0.14849828611347496 -0.12041313059589023  0.
0.1740749583672103 -0.17190356682431854  0.
0.14561000726116508 -0.15778076316168663  0.
0.11812705051828234 -0.1454372134574792  0.
0.09157829695285691 -0.1349464734733586  0.
0.06583671966869419 -0.1264050107283733  0.
0.040705703387987804 -0.11990888447633707  0.
0.015935694605339522 -0.11554012281541359  0.
-0.008758643083760799 -0.1133627090500699  0.
-0.033683945958193066 -0.1134255807276043  0.
-0.059158003045576835 -0.11576809185846691  0.
-0.08550313421044924 -0.12042325830489684  0.
-0.11303879704013914 -0.1274168153158815  0.
-0.14206583343617415 -0.136765117337984  0.
-0.1728300808972029 -0.14848029999961584  0.
0.1962590113872102 -0.20675642469368796  0.
0.16451699467984499 -0.19260845724112993  0.
0.13373491488649014 -0.1802651092304763  0.
0.10381932881125434 -0.1697720689959768  0.
0.07462560004818283 -0.16119777071936472  0.
0.045959768847582363 -0.15461754571077221  0.
0.017586521818690155 -0.15010257011556707  0.
-0.01076099251416194 -0.14771394610800231  0.
-0.03937140664943182 -0.14750107064165238  0.
-0.06854650175707988 -0.14950251066339604  0.
-0.09859345330068944 -0.15374747700145575  0.
-0.1298160190168113 -0.16025686173279943  0.
-0.1625014995854888 -0.1690451921716567  0.
-0.196899249148716 -0.18012897643347908  0.
0.2176663315794533 -0.24538326601845875  0.
0.18264781061482332 -0.23120159096294543  0.
0.14858532288997878 -0.21883439928531262  0.
0.11534848575944133 -0.20831139297695048  0.
0.08277410537146551 -0.19968159410749037  0.
0.050664376904784696 -0.19300276400947253  0.
0.01879015639617669 -0.1883330714037452  0.
-0.013103579100279959 -0.18572550114262573  0.
-0.04529125896701292 -0.18522489128756248  0.
-0.07806004476484867 -0.18686694014270758  0.
-0.1117029973004159 -0.19067849267322276  0.
-0.1465112714315699 -0.19667881982822968  0.
-0.18276464034961726 -0.20488275149334653  0.
-0.22072062149728497 -0.21530833848375178  0.
0.2382297021326612 -0.2877145652754316  0.
0.19996411431599712 -0.27348897503614505  0.
0.16265751354914781 -0.26107602725773643  0.
0.1261513150060016 -0.250495678116395  0.
0.09026596848148942 -0.24178322593235474  0.
0.05479771613868524 -0.23498230912977358  0.
0.01951940756528816 -0.23013884217642125  0.
-0.015816637228949854 -0.22729638360682786  0.
-0.051474408112452935 -0.22649313445756905  0.
-0.08772929977466137 -0.22776039567210113  0.
-0.1248627443655576 -0.23112231553329912  0.
-0.16315616172574504 -0.2365969494740986  0.
-0.20288473821291791 -0.2441991560314254  0.
-0.2443128714319708 -0.2539463191649358  0.
0.25789643796213096 -0.3336631965857405  0.
0.2164318471408381 -0.3193826984574732  0.
0.17593090266133846 -0.3069044236914596  0.
0.13621417080711404 -0.2962418430261655  0.
0.09708879734960726 -0.2874202014682046  0.
0.058344961149781854 -0.28047189735029404  0.
0.01975548631440509 -0.27543215064140847  0.
-0.01892283833994344 -0.2723353855550649  0.
-0.05794658140476358 -0.27121263925495387  0.
-0.09758220773751274 -0.2720900295883373  0.
-0.13810215178310592 -0.27498832132525153  0.
-0.17978048447888548 -0.2799236953531575  0.
-0.22288914925928627 -0.2869099797571162  0.
-0.2676966444518369 -0.29596246073731336  0.
0.27662495692085115 -0.3831325329540678  0.
0.23202150547927783 -0.3687860953680553  0.
0.18838591743933517 -0.3562252040853564  0.
0.14552364844569726 -0.3454585423871316  0.
0.10323150245094873 -0.3365036608136068  0.
0.061294307526347624 -0.32938392207239225  0.
0.019484010659603535 -0.3241254384806663  0.
-0.022439911914717236 -0.32075433295900874  0.
-0.06472883056720025 -0.3192946559764757  0.
-0.10764262274427122 -0.3197670633406124  0.
-0.1514469659094697 -0.3221883623046266  0.
-0.1964104092352189 -0.32657202557317183  0.
-0.2428022734717512 -0.33292975810976977  0.
-0.2908927296098172 -0.34127387611852283  0.
0.2943821313122336 -0.43602072861985436  0.
0.24670788900566898 -0.4215978302500318  0.
0.20000455584740967 -0.40893919367365994  0.
0.154066790897867 -0.39804960321297234  0.
0.10868360012226577 -0.3889404426666632  0.
0.06363543375124756 -0.3816276651554446  0.
0.01869312410045542 -0.3761296398415964  0.
-0.026382231530678396 -0.37246511278508043  0.
-0.07183836442675924 -0.3706515940621473  0.
-0.11793033866272401 -0.3707042869349047  0.
-0.16491880245149332 -0.3726356749226804  0.
-0.21306811449961935 -0.37645583977172914  0.
-0.2626453030753184 -0.38217350312796605  0.
-0.3139206095948177 -0.38979747426875655  0.
0.3111415120772104 -0.49222342457042206  0.
0.2604698162398642 -0.477714413671484  0.
0.21077080825513664 -0.4649449349482778  0.
0.1618315349608679 -0.4539163458484617  0.
0.11343526814348791 -0.44463486924483214  0.
0.06535905862848802 -0.43711023355189066  0.
0.0173726952516104 -0.4313541630072119  0.
-0.030761710769613794 -0.42737887241315003  0.
-0.07928930497348378 -0.4251958436876309  0.
-0.12846161303589013 -0.42481498509329774  0.
-0.17853551211709653 -0.4262442752727893  0.
-0.22977211222471974 -0.42948994109920546  0.
-0.2824363727871112 -0.4345571260950188  0.
-0.33679772964993554 -0.4414507791133382  0.
0.32688192609787936 -0.5516347456778473  0.
0.27328968143380516 -0.5370310736853507  0.
0.22067079420340535 -0.5241395735928804  0.
0.16880703396757485 -0.5129584396614967  0.
0.11747756466679155 -0.5034894133636808  0.
0.0664569183736965 -0.4957368639022663  0.
0.015514054270861685 -0.48970673117121877  0.
-0.035588218834498066 -0.4854054175473683  0.
-0.08709314641408869 -0.4828388693511043  0.
-0.1392495962408973 -0.48201192539279797  0.
-0.19231155436227607 -0.48292801542337466  0.
-0.24653753252354102 -0.48558924177377116  0.
-0.30219059596158876 -0.48999679533119617  0.
-0.3595389682467704 -0.4961515174345237  0.
0.34158668058331854 -0.6141483600052042  0.
0.2851532294288751 -0.5994427082385633  0.
0.2296929346897014 -0.5864198170122975  0.
0.1749839993739951 -0.5750748766202768  0.
0.12080274301995039 -0.5654056216018115  0.
0.06692193105642102 -0.5574117015571376  0.
0.013109961044495733 -0.5510939417473494  0.
-0.04086979541963706 -0.5464535254599988  0.
-0.09525910973956543 -0.5434913064001123  0.
-0.15030477677935886 -0.5422073044973965  0.
-0.2062584841575747 -0.5426004495219414  0.
-0.2633765800390842 -0.5446685971537993  0.
-0.3219203662445584 -0.5484087749809003  0.
-0.3821566835888911 -0.5538175451930881  0.
0.3552429400407244 -0.6796578924170814  0.
0.29604930463589657 -0.6648442361298925  0.
0.23782799595666734 -0.6516822941331942  0.
0.18035490969681947 -0.6401643623027382  0.
0.12340449636754912 -0.6302845125536782  0.
0.06674837979886158 -0.6220381565484226  0.
0.01015467250677793 -0.6154215289085092  0.
-0.04661271489135146 -0.6104310799254464  0.
-0.10379432615512618 -0.6070629590875881  0.
-0.16163525385733887 -0.6053126214367245  0.
-0.22038526834339994 -0.6051746055391886  0.
-0.28029882835427716 -0.606642503528936  0.
-0.3416355508651911 -0.6097090886330393  0.
-0.4046608034855155 -0.6143665408534821  0.
0.36784129050390796 -0.7480571305047278  0.
0.3059696516179076 -0.7331307625645774  0.
0.24506909892598763 -0.7198237303476397  0.
0.1849141537620275 -0.7081255226508374  0.
0.12527814975488397 -0.6980268101775233  0.
0.06593208108228256 -0.6895191384211029  0.
0.0066440379510112335 -0.6825945670872292  0.
-0.052821488069289935 -0.677245213884609  0.
-0.11270393773120554 -0.6734628629434959  0.
-0.17324691992349212 -0.6712386520628848  0.
-0.23469851611898798 -0.6705628749284729  0.
-0.2973114501773459 -0.6714249168252898  0.
-0.3613436764983968 -0.6738132945044996  0.
-0.42705899463925184 -0.6777157743143023  0.
0.3793754886073853 -0.8192405405526291  0.
0.31490880399142557 -0.8041980605538388  0.
0.25141174052450255 -0.7907414323335268  0.
0.18865814128481762 -0.7788574142969222  0.
0.12642080390621582 -0.7685334829879205  0.
0.06447050911310728 -0.759757612645284  0.
0.002575563752498346 -0.752518024271812  0.
-0.05949888115429893 -0.7468028372410155  0.
-0.12199120727679474 -0.7425997677778144  0.
-0.18514365289797813 -0.7398958741883771  0.
-0.2492027307363247 -0.7386773748585648  0.
-0.31441949624411364 -0.7389295566385188  0.
-0.3810502111045161 -0.7406367456398787  0.
-0.4493569777427031 -0.743782333437812  0.
0.3898421433389747 -0.8931028917908627  0.
0.3228638838704223 -0.8779421912984939  0.
0.25685371171811705 -0.8643329219600919  0.
0.19158531542855994 -0.852259186112572  0.
0.12683140595579218 -0.8417054378150024  0.
0.062362887329535176 -0.8326563214543335  0.
-0.0020515054227738566 -0.8250964978383367  0.
-0.06664586558753097 -0.819010372347631  0.
-0.13165750804624723 -0.8143818578024243  0.
-0.19732734230747725 -0.8111941606112678  0.
-0.26390035779538124 -0.8094296081347062  0.
-0.33162594571005527 -0.8090695344402979  0.
-0.4007586031135428 -0.8100941949860373  0.
-0.4715585725305018 -0.8124827118933555  0.
0.3992405728029616 -0.969539572777747  0.
0.32983451599867614 -0.9542598073005698  0.
0.2613950750873245 -0.9404962453881608  0.
0.19369617848564635 -0.9282304071110924  0.
0.12651079849272165 -0.9174438725577989  0.
0.05961023391897952 -0.9081181602326113  0.
-0.007236168292993447 -0.9002346074699038  0.
-0.07426164391327714 -0.8937741527588554  0.
-0.14170240224933828 -0.8887171444221466  0.
-0.2097980197865123 -0.8850431554045595  0.
-0.2787919589526243 -0.8827308156528171  0.
-0.34893190973126453 -0.8817576792023097  0.
-0.4204705057024987 -0.8821000930577537  0.
-0.49366594622761245 -0.8837330747825748  0.
0.4075726755501971 -1.048447065207038  0.
0.3358227365424123 -1.0330486154082374  0.
0.2650381133958624 -1.019130438997357  0.
0.19499327171326375 -1.0066715469234704  0.
0.12546171424309097 -0.9956507771606469  0.
0.056215352409518006 -0.9860466994886267  0.
-0.012975697937579618 -0.9778375340012985  0.
-0.08234371553031446 -0.9710009716306349  0.
-0.1521237487754041 -0.9655140153998455  0.
-0.2225540092628972 -0.9613528153249387  0.
-0.2938763988904103 -0.958492503300898  0.
-0.36633684577814934 -0.956907045453416  0.
-0.440186008667647 -0.9565690748865799  0.
-0.5156798604924966 -0.957449714434495  0.
0.41484266894270944 -1.129721943148043  0.
0.34083279379206044 -1.1142063972703764  0.
0.26778719663279615 -1.100134568335535  0.
0.19548110418886125 -1.0874830356823233  0.
0.12368875625335825 -1.0762280171782859  0.
0.05218285001080188 -1.0663452926291621  0.
-0.01926559805316146 -1.0578101492747245  0.
-0.09088781761286512 -1.0505972293556112  0.
-0.1629176346770712 -1.0446803947936427  0.
-0.23559185005422736 -1.0400325766264578  0.
-0.3091507564820106 -1.0366256114764583  0.
-0.3838384500346375 -1.0344300833976126  0.
-0.45990350466085583 -1.0334151298900165  0.
-0.5375994981664128 -1.0335482252241204  0.
0.42105707887845817 -1.2132623858801226  0.
0.34487112262803 -1.1976324930350137  0.
0.26964874590026916 -1.1834092043442057  0.
0.19516610084608138 -1.1705667430399032  0.
0.12119832159824111 -1.159078820942968  0.
0.04751902713701973 -1.1489185728356754  0.
-0.026099757083071433 -1.1400585211210688  0.
-0.09988813039132813 -1.1324704426478693  0.
-0.17407863597322057 -1.1261252506091264  0.
-0.2489066137737154 -1.1209928550760202  0.
-0.32461069449327157 -1.11704200125199  0.
-0.40143307303483805 -1.1142401051899322  0.
-0.47962014004785486 -1.112553041882741  0.
-0.5594229377969263 -1.1119449031588655  0.
0.42622446367683514 -1.2989666346973827  0.
0.347946128510678 -1.2832262918139368  0.
0.2706310765419483 -1.2688549330681433  0.
0.19405650524523435 -1.2558245062586326  0.
0.11799855960317923 -1.244106326636081  0.
0.042231884844185046 -1.2336710195186749  0.
-0.03347039806368231 -1.2244884986192348  0.
-0.10933718967442806 -1.216527846945127  0.
-0.18559969613693827 -1.2097572119599183  0.
-0.26249174937866593 -1.2041436753962236  0.
-0.34025026890389737 -1.1996530943055592  0.
-0.41911548830757667 -1.196249934987916  0.
-0.49933153531702723 -1.1938970515037401  0.
-0.5811468107906703 -1.192555430887896  0.
0.43035536835557536 -1.3867344492025997  0.
0.3500681203872842 -1.3708886624763874  0.
0.27074431513102465 -1.356373779756765  0.
0.19216227654103873 -1.343159553276908  0.
0.11409924444687887 -1.3312150078280418  0.
0.03633096804628996 -1.3205083874444863  0.
-0.04136826963658656 -1.3110071439713966  0.
-0.11922611592531757 -1.302677828669982  0.
-0.19747239536612918 -1.2954859982922002  0.
-0.276339392536934 -1.2893960934474227  0.
-0.3560622756955931 -1.2843712838508021  0.
-0.43687927095125373 -1.2803733044211671  0.
-0.51903218657307 -1.277362231198534  0.
-0.602766712896239 -1.275296225496886  0.
0.433462126742855 -1.4764665838288002  0.
0.3512491414701608 -1.4605214428361124  0.
0.2700002559587493 -1.4458687041258607  0.
0.1894949729531119 -1.4324760060695139  0.
0.10951168378328258 -1.4203101857765053  0.
0.029827296486373365 -1.4093372283509185  0.
-0.04978269576083514 -1.3995222630445108  0.
-0.1295446471852973 -1.3908294635727654  0.
-0.2096869681374485 -1.3832219639255978  0.
-0.2904403676508243 -1.376661745292431  0.
-0.37203823526087465 -1.371109486996283  0.
-0.4547167601924309 -1.366524408045309  0.
-0.538715398969577 -1.3628640460961448  0.
-0.624277099512025 -1.3600840085021664  0.
0.43555870319542234 -1.568064088718086  0.
0.35150283169920543 -1.552026749629547  0.
0.2684122486686081 -1.537242919004086  0.
0.18606766364593036 -1.5236782059413307  0.
0.10424865367810647 -1.5112973615865875  0.
0.02273332074982502 -1.5000642301002147  0.
-0.05870160072088094 -1.489941751229816  0.
-0.1402811468676658 -1.4808918685165064  0.
-0.22223229479861747 -1.4728754546688556  0.
-0.30478416313489193 -1.4658522075705183  0.
-0.3881683497993304 -1.459780508249477  0.
-0.4726189955615553 -1.4546172702616629  0.
-0.5583731966945936 -1.4503177256079305  0.
-0.6456711591131145 -1.4468351890810947  0.
0.4366605865993558 -1.661429966034488  0.
0.3508442997472152 -1.6453086105778478  0.
0.26599504898594345 -1.6304015105817193  0.
0.18189475706997502 -1.6166723279774933  0.
0.09832420299772811 -1.6040838270511495  0.
0.015062701372796196 -1.5925978244275285  0.
-0.06811175652279786 -1.5821751973409295  0.
-0.15142287861621428 -1.5727757998984722  0.
-0.2350962043311213 -1.5643583986409186  0.
-0.31935926167520806 -1.5568805784619975  0.
-0.40444185942657424 -1.5502986085464883  0.
-0.4905760954951645 -1.5445673007413099  0.
-0.577996718201134 -1.539639804201614  0.
-0.6669412195029132 -1.5354673859023498  0.
0.43678461231134347 -1.7564673206132648  0.
0.34928998759566904 -1.7402711433511115  0.
0.26276472429027364 -1.725249630231811  0.
0.17699194972895818 -1.7113645820599324  0.
0.09175364619201323 -1.6985768738971274  0.
0.006830345691530465 -1.6868464041779865  0.
-0.07799870231911388 -1.6761321087356522  0.
-0.16295588260456892 -1.6663918864742044  0.
-0.24826530817275086 -1.6575825467021241  0.
-0.33415293197453266 -1.6496597260885626  0.
-0.4208467916392845 -1.6425777629414628  0.
-0.5085769634450774 -1.63628956425725  0.
-0.5975758768879379 -1.6307464087474257  0.
-0.6880783580732382 -1.6258977434527164  0.
0.43594883832329856 -1.853081037572474  0.
0.34685752371072825 -1.8368202076114388  0.
0.2587384872377399 -1.8216941363246113  0.
0.17137603777014096 -1.8076628478130232  0.
0.08455335242828026 -1.7946854236939482  0.
-0.0019478252883277727 -1.7827199484798815  0.
-0.08834699962703073 -1.7717235308214097  0.
-0.1748652529692097 -1.7616522414695697  0.
-0.26172530029509483 -1.7524610751311647  0.
-0.34915155192194525 -1.7441038798738626  0.
-0.4373703075526222 -1.7365332392969506  0.
-0.5266096560375505 -1.7297003460411307  0.
-0.6170997485180592 -1.7235548099506832  0.
-0.7090728043681669 -1.7180444679641433  0.
0.4341723939404503 -1.9511770952189837  0.
0.34356559365115974 -1.9348627280328339  0.
0.2539345837147469 -1.9196429194156195  0.
0.1650648242783915 -1.9054760030901057  0.
0.0767406737988654 -1.8923193599854493  0.
-0.011254926026804104 -1.8801293584843919  0.
-0.09914025764421948 -1.8688613857005651  0.
-0.18713513915261143 -1.8584698029509816  0.
-0.2754609354445174 -1.8489079265510633  0.
-0.36434056527866365 -1.8401279714748855  0.
-0.4539986386413025 -1.8320809398856124  0.
-0.5446613008328031 -1.8247164964191434  0.
-0.6365564693949033 -1.8179827747953756  0.
-0.7299138174569285 -1.811826193556814  0.
0.4314753761033633 -2.0506618000802943  0.
0.3394338508424994 -2.0343059345365746  0.
0.24837221864419629 -2.019004147215747  0.
0.15807705974717026 -2.0047131723529277  0.
0.06833390293013383 -1.9913887807731891  0.
-0.02107312886207615 -1.9789857139089926  0.
-0.11036113369965068 -1.9674577316986803  0.
-0.19974872405754432 -1.956757594528436  0.
-0.28945598644487824 -1.9468370699440998  0.
-0.37970442092435813 -1.93764689299954  0.
-0.47071701123028276 -1.9291366581754454  0.
-0.5627180087710184 -1.92125468845751  0.
-0.6559331379792493 -1.9139478290791905  0.
-0.7505895737616087 -1.9071612570406857  0.
0.42787868394564493 -2.1514435355896135  0.
0.33448273367442116 -2.1350590895619908  0.
0.2420713507254589 -2.1196879811380644  0.
0.15043221416558156 -2.105285439367653  0.
0.059352025897783864 -2.0918057104817374  0.
-0.03138392551173822 -2.079201984548803  0.
-0.1219916057316166 -2.0674264721535636  0.
-0.21268850662333344 -2.0564304275649667  0.
-0.30369353876733296 -2.0461641920152713  0.
-0.39522688348185664 -2.036577174031932  0.
-0.48750997816868524 -2.0276177397640933  0.
-0.5807652311171678 -2.019233063317855  0.
-0.6752161984968945 -2.011368889816698  0.
-0.7710875756315094 -2.0039693190972954  0.
0.4234039695492392 -2.2534307164485528  0.
0.3287334467795774 -2.2370314638433015  0.
0.235052694286211 -2.221604562053151  0.
0.14215050308008131 -2.207103844164769  0.
0.04981478065631325 -2.193482110358617  0.
-0.04216802801241242 -2.1806910542302944  0.
-0.13401282718767105 -2.168681390573413  0.
-0.22593610959759777 -2.1574029435039543  0.
-0.3181557545276426 -2.1468047423711605  0.
-0.41089076046535283 -2.136835026653519  0.
-0.504361117966255 -2.127441127022764  0.
-0.5987874390570948 -2.118569278171455  0.
-0.6943911063924859 -2.1101643244325863  0.
-0.7913943014427871 -2.102169447571723  0.
0.4180734787368646 -2.3565335409833903  0.
0.32220777709266923 -2.340134063792848  0.
0.2273375011453126 -2.3246657303521427  0.
0.13325263771279225 -2.3100811058635875  0.
0.03974238726990933 -2.2963316103256184  0.
-0.05340564601275775 -2.2833674622779583  0.
-0.14640540374642919 -2.271137897311409  0.
-0.2394725537900749 -2.259591358120767  0.
-0.3328241487008291 -2.248675666639179  0.
-0.4266781900622714 -2.2383380598887297  0.
-0.5212533466777632 -2.2285250505588245  0.
-0.6167684718042823 -2.2191821750463907  0.
-0.7134427201126885 -2.2102536021005075  0.
-0.811495639046632 -2.201681759353418  0.
0.4119100015471624 -2.46066318964491  0.
0.3149280426026425 -2.4442788295738387  0.
0.21894748810565579 -2.4287842259365933  0.
0.12375974356509531 -2.414130838145332  0.
0.029155478611658736 -2.4002687479403453  0.
-0.06507652481729323 -2.3871466670658203  0.
-0.1591493883001649 -2.374712312625247  0.
-0.25327820738933293 -2.362912754776932  0.
-0.34767949925216884 -2.351694698891174  0.
-0.4425705262319832 -2.3410045614696156  0.
-0.5381687970394228 -2.3307882947722245  0.
-0.634691429362564 -2.320991031635437  0.
-0.732355221362172 -2.3115565398188296  0.
-0.8313768346943595 -2.302426678826643  0.
0.4049368974173552 -2.5657309685148837  0.
0.30691708607870816 -2.5493777629088257  0.
0.20990478381021976 -2.5338728174012375  0.
0.11369328236491545 -2.51916669805769  0.
0.018075030109232195 -2.505208148801292  0.
-0.07715998068367438 -2.4919442605366626  0.
-0.17222426522296058 -2.4793211097867633  0.
-0.2673327155604096 -2.4672843445977  0.
-0.3627017305920325 -2.4557796239378815  0.
-0.4585481954037771 -2.4447527473635957  0.
-0.5550886757034564 -2.434149424215667  0.
-0.652538559971584 -2.4239147631243174  0.
-0.7511120559862697 -2.413992490559195  0.
-0.8510224916988984 -2.4043241355960947  0.
0.39717800352026833 -2.6716501206766794  0.
0.29819808621217564 -2.6553446824376263  0.
0.20023163257268217 -2.6398460399623076  0.
0.10307469080843808 -2.625104139429161  0.
0.006521981285367785 -2.6110663134367567  0.
-0.0896352602024879 -2.597677794479022  0.
-0.18560926984809475 -2.584882777007969  0.
-0.2816152745367458 -2.5726253518898576  0.
-0.3778701519759692 -2.560850167137163  0.
-0.47459092376879275 -2.5495026334971693  0.
-0.5719935167182817 -2.5385286176575694  0.
-0.6702915835097363 -2.5278737098567645  0.
-0.7696963653502317 -2.5174820935786135  0.
-0.8704171239751456 -2.507295306603109  0.
0.38865789736412837 -2.778333706155839  0.
0.2887946828420667 -2.762093044817174  0.
0.18995039989342766 -2.746617995827686  0.
0.0919253438134801 -2.7318582276663443  0.
-0.00548277655159088 -2.7177594677613914  0.
-0.10248148491186657 -2.7042646801601755  0.
-0.19928324175578246 -2.6913157736175117  0.
-0.29610438605116635 -2.6788550244468  0.
-0.39316312227371447 -2.666826043269139  0.
-0.49067734120692086 -2.6551740961074124  0.
-0.588862774092981 -2.643845709757137  0.
-0.6879313374968185 -2.6327876410011597  0.
-0.7880907502979256 -2.621945246574498  0.
-0.8895450752850864 -2.611260598343288  0.
0.379402005095409 -2.8856966274338607  0.
0.2787307892970102 -2.869537816029254  0.
0.1790831844857729 -2.854104154828465  0.
0.08026608835832565 -2.8393454086475134  0.
-0.017918866778329358 -2.8252053233839116  0.
-0.11567807880293608 -2.8116239686657054  0.
-0.213224992918729 -2.7985403644095443  0.
-0.3107781550171132 -2.785894546402058  0.
-0.40855827878281004 -2.7736289470876843  0.
-0.5067851662884553 -2.761688908521492  0.
-0.6056750210437218 -2.750022222176894  0.
-0.7054380811182454 -2.738577731731989  0.
-0.8062777849356365 -2.727303014287079  0.
-0.9083913227602888 -2.7161415308858885  0.
0.3694370867134841 -2.993655036634703  0.
0.26803062669273003 -2.977594654298043  0.
0.16765164874854024 -2.962220398723422  0.
0.06811705644443655 -2.947482426968073  0.
-0.03076656373643717 -2.9333218784320385  0.
-0.12920484671922036 -2.9196750889365166  0.
-0.22741332874730394 -2.9064773918794584  0.
-0.3256142392376146 -2.8936659439348653  0.
-0.4240323961037016 -2.881181647249141  0.
-0.5228909770834218 -2.868970007107753  0.
-0.6224076872570634 -2.85698072249132  0.
-0.7227913192638568 -2.8451659143172776  0.
-0.8242400974502669 -2.8334769096959005  0.
-0.9269419818813881 -2.8218599829468234  0.
0.3587917262877772 -3.1021283063068554  0.
0.25671851605226 -3.0861814953262554  0.
0.15567665571099557 -3.070884320753384  0.
0.05549739096136882 -3.056187277709914  0.
-0.04400697330243884 -3.0420279861412225  0.
-0.14304214946149363 -3.0283381179751356  0.
-0.2418272833688457 -3.0150484619565017  0.
-0.3405901361119756 -3.0020924522581187  0.
-0.43956165629090943 -2.989408735295768  0.
-0.5389703993931081 -2.9769426713790264  0.
-0.639037176536179 -2.964646321805896  0.
-0.7399699884771536 -2.9524764853038645  0.
-0.8419608900287381 -2.9403904280642745  0.
-0.9451854869479345 -2.9283396250038933  0.
0.3474971639910021 -3.211039290695517  0.
0.2448188152597283 -3.195218247594389  0.
0.14317833399431956 -3.1800143665052985  0.
0.042425698203527894 -3.1653775646084634  0.
-0.0576213503828163 -3.151240806609414  0.
-0.1571702824844978 -3.1375304317570403  0.
-0.2564457951268617 -3.1241721670898634  0.
-0.3556831990368487 -3.111094902381989  0.
-0.45512185160209434 -3.0982337418007853  0.
-0.55499826383618 -3.08553264414258  0.
-0.6555388434746088 -3.0729456798541013  0.
-0.7569523582543654 -3.060435585796095  0.
-0.8594241577648581 -3.0479685449433775  0.
-0.9631137442981059 -3.035505210435755  0.
0.3355872486013797 -3.3203225183122056  0.
0.23235498400274454 -3.3046341066059717  0.
0.13017594157890902 -3.289536031369818  0.
0.028920813667351837 -3.2749750599491723  0.
-0.0715899200301055 -3.260878500846851  0.
-0.17156851165669199 -3.2471676791800768  0.
-0.27124752371326033 -3.2337638554203143  0.
-0.37087152695443815 -3.220591262723502  0.
-0.4706901165126237 -3.2075798197152294  0.
-0.5709505872852049 -3.1946689405626323  0.
-0.6718886817835651 -3.181811998954213  0.
-0.7737173208058284 -3.1689776011395256  0.
-0.876616100759258 -3.1561444266580656  0.
-0.9807247798458489 -3.143288832928272  0.
0.32309764270766533 -3.429931467341325  0.
0.21934885388636438 -3.414373547950848  0.
0.11668946170329608 -3.3993855551170253  0.
0.015005231252611342 -3.384906118820056  0.
-0.08588772109836094 -3.37085711756155  0.
-0.18621129711047776 -3.3571574798577895  0.
-0.28620844844975485 -3.3437268670044937  0.
-0.3861337872379612 -3.330486543534074  0.
-0.48624719018474205 -3.3173604659677687  0.
-0.5868080831048602 -3.304278576037908  0.
-0.6880664508366329 -3.291185020806323  0.
-0.7902462531555823 -3.278049118268486  0.
-0.8935262174670449 -3.264864739023706  0.
-0.9980250021796646 -3.251634350148066  0.
0.3100613061027346 -3.5398572296317328  0.
0.2058195854091816 -3.524412833175245  0.
0.10274373610217921 -3.5095213751484793  0.
0.0007123075915218884 -3.4951065900331866  0.
-0.10047651814585767 -3.48108912089646  0.
-0.20106104199186964 -3.467392569626158  0.
-0.3012968234530628 -3.453941563130651  0.
-0.40144769052212337 -3.4406589896793647  0.
-0.5017809676558913 -3.427464421702656  0.
-0.602564814229994 -3.414274960947103  0.
-0.7040649438648638 -3.401011455194619  0.
-0.8065292043204604 -3.3876207220915107  0.
-0.9101500840353278 -3.3741062335447705  0.
-1.0150318143565518 -3.36051222465125  0.
0.2964959455345966 -3.650164651387474  0.
0.19178449452912377 -3.634791582465291  0.
0.08837935071021767 -3.6199438112325635  0.
-0.01389857630701703 -3.6055282895697878  0.
-0.11528930106224469 -3.5914786302022566  0.
-0.21605462698256803 -3.5777376725591084  0.
-0.31646322061333965 -3.564246400189043  0.
-0.4167847961668355 -3.5509371719760234  0.