<?xml version="1.0"?>
<VTKFile type="UnstructuredGrid" version="0.1" byte_order="LittleEndian" compressor="vtkZLibDataCompressor">
<UnstructuredGrid>
<Piece NumberOfPoints="7224" NumberOfCells="7014">
<PointData>
<DataArray type="Float64" Name="displacement" NumberOfComponents="3" format="ascii" >
0.0 0.0  0.
0.0 0.0  0.
0.0 0.0  0.
0.0 0.0  0.
0.0 0.0  0.
0.0 0.0  0.
0.0 0.0  0.
0.0 0.0  0.
0.0 0.0  0.
0.0 0.0  0.
0.0 0.0  0.
0.0 0.0  0.
0.0 0.0  0.
0.0 0.0  0.
0.0 0.0  0.
0.0 0.0  0.
0.0 0.0  0.
0.0 0.0  0.
0.0 0.0  0.
0.0 0.0  0.
0.0 0.0  0.
0.0 0.0  0.
0.0 0.0  0.
0.0 0.0  0.
0.0 0.0  0.
0.0 0.0  0.
0.0 0.0  0.
0.0 0.0  0.
0.0 0.0  0.
0.0 0.0  0.
0.0 0.0  0.
0.0 0.0  0.
0.0 0.0  0.
0.0 0.0  0.
0.0 0.0  0.
0.0 0.0  0.
0.0 0.0  0.
0.0 0.0  0.
0.0 0.0  0.
0.0 0.0  0.
0.0 0.0  0.
0.0 0.0  0.
0.0 0.0  0.
0.007673381876127631 -0.010043028747759563  0.
0.002635969425850289 -0.005213241852314848  0.
0.0031878017667809973 -0.004160243036118627  0.
0.0022294947259513427 -0.003013496364446026  0.
0.0023739524501757386 -0.0024165919846315925  0.
0.0019236070384200377 -0.0018100557493467848  0.
0.0019452590473238026 -0.001409010945476241  0.
0.0016547525084826802 -0.001010254510827671  0.
0.0016228212211446438 -0.0007206797183824437  0.
0.001404122649713723 -0.00043479423120975605  0.
0.0013434882234271443 -0.00021902520273220794  0.
0.0011641782540804235 -6.281859140818959e-06  0.
0.001085826466004992 0.0001556289368609564  0.
0.0009311633699145628 0.00031549351745858073  0.
0.0008405226879422906 0.00043515531167722787  0.
0.0007028644805804675 0.0005536533554201901  0.
0.0006027216030437718 0.0006381161985136388  0.
0.000477786237024346 0.0007221123916531171  0.
0.00036946908230702224 0.0007756110392835321  0.
0.0002547951735921182 0.0008291479621943233  0.
0.00013868757322784052 0.0008539583858412129  0.
3.294577947288664e-05 0.0008791297718978192  0.
-9.131389835454105e-05 0.0008759742510753656  0.
-0.00018862066742491895 0.0008733245090784297  0.
-0.0003221316425650118 0.0008414906841059371  0.
-0.000410744969272238 0.0008101223404513006  0.
-0.0005555123300625473 0.0007473415578625371  0.
-0.0006343106760103595 0.0006847783307492666  0.
-0.0007936612240313505 0.0005868134495235072  0.
-0.0008603145777462395 0.0004885712347441145  0.
-0.0010397715587194235 0.00034833352215539107  0.
-0.0010899663620381939 0.00020702225666887817  0.
-0.001299147134556033 1.2743726105825878e-05  0.
-0.0013248549517265056 -0.00018374970832807448  0.
-0.0015819986158830282 -0.00045258864707415204  0.
-0.001567253215066095 -0.0007250490866629726  0.
-0.0019118137770545315 -0.0011082635303079416  0.
-0.0018206912569863722 -0.0014960459374385603  0.
-0.0023575987137661653 -0.002087651613028698  0.
-0.002090819088951721 -0.0026803392407566008  0.
-0.003222521486928239 -0.0038058366403557918  0.
-0.0023845180378237168 -0.004903832879679978  0.
-0.008046093904287942 -0.009640932868053512  0.
0.010711442944060403 -0.012574336917308195  0.
0.008842326937225416 -0.011442772530028924  0.
0.005788839162305689 -0.007878389007197888  0.
0.0058817132449170886 -0.006619709819070913  0.
0.0046304786107224 -0.005012797576110732  0.
0.004631668370151101 -0.004133947127471059  0.
0.0038918952638389657 -0.0031520719106491167  0.
0.0038103975497885234 -0.0025130988048053067  0.
0.0032841181528068934 -0.0018333042529225362  0.
0.003151868378486854 -0.0013550279369798968  0.
0.0027362437140981063 -0.0008568170053468516  0.
0.0025713389247247814 -0.000495122589599546  0.
0.0022217220656486638 -0.0001215428087366089  0.
0.0020338595789505683 0.00014970420871000594  0.
0.0017277957569912924 0.00042956326202108874  0.
0.0015221058247893125 0.0006264703491306263  0.
0.0012471566746934816 0.0008307099949439473  0.
0.0010261111319556893 0.0009632185526453281  0.
0.0007749854606023151 0.0011026905590824751  0.
0.0005393042502134447 0.0011765414355566588  0.
0.00030768819690501397 0.001257444520418337  0.
5.671939471799729e-05 0.0012751629344325863  0.
-0.00015774608200184884 0.0013003001807720175  0.
-0.0004259777493482261 0.0012615851904502  0.
-0.000624140247203962 0.0012308960580242373  0.
-0.0009131759039304628 0.0011325478048432136  0.
-0.0010944505248191615 0.0010431488267260783  0.
-0.0014100166220791055 0.0008784959591608593  0.
-0.0015721344177057632 0.0007242611441716138  0.
-0.0019234102015392275 0.00048184699434007146  0.
-0.0020617136745430713 0.00025239461193121666  0.
-0.0024639247606671804 -8.671898134773253e-05  0.
-0.002569863858162145 -0.0004080199303383918  0.
-0.0030499603453681967 -0.0008759966773232297  0.
-0.003107940511305471 -0.0013158992951681494  0.
-0.0037185315411747597 -0.001971799556289661  0.
-0.003699237280326832 -0.0025750764758527035  0.
-0.004558855401378791 -0.0035436619419018586  0.
-0.004406943533449115 -0.004389982350960882  0.
-0.005848575316700866 -0.006005966452485045  0.
-0.005508171559768063 -0.007235762552291589  0.
-0.008904817793054557 -0.010881437614568872  0.
-0.010636513245536642 -0.011957075788320096  0.
0.01556648556135589 -0.01730027814270638  0.
0.012044167793416093 -0.013694000270689233  0.
0.010881654062614323 -0.012321176066887528  0.
0.008532542387403844 -0.009434245843077057  0.
0.00827354652354059 -0.008128854519637983  0.
0.006904834495010348 -0.006378109143852165  0.
0.0066942651654706455 -0.00537133566928204  0.
0.005754571465220485 -0.004182871909426665  0.
0.005514116019258999 -0.0034123364978923335  0.
0.004794155554554814 -0.0025510920712165323  0.
0.0045217592429399964 -0.0019597725709784132  0.
0.00392979483964463 -0.0013154615342320989  0.
0.003630971190628557 -0.0008648517209076883  0.
0.003121144848004114 -0.0003787241458301507  0.
0.0028001615618706006 -4.365346937526465e-05  0.
0.0023471887748914514 0.000318341077364701  0.
0.0020062688540562097 0.0005540891421834167  0.
0.001595224188076778 0.0008125371458469311  0.
0.001234788557468369 0.0009589020419555842  0.
0.0008565135669320216 0.0011261562033708422  0.
0.0004753841417604236 0.0011882892952461434  0.
0.00012426511165557395 0.0012710556774825227  0.
-0.00028036245573435394 0.001250023792650724  0.
-0.000607495905052488 0.0012506177279147266  0.
-0.0010403558586781192 0.0011434913565442845  0.
-0.0013447234078152353 0.001060302035313342  0.
-0.001813175150373711 0.000859629294347075  0.
-0.002094133933413946 0.0006869902884704257  0.
-0.002609509959145597 0.0003794425789589918  0.
-0.002864286546796167 0.00010690797142884576  0.
-0.0034444708541104705 -0.00032947562191110044  0.
-0.003667501476023822 -0.0007186190240486216  0.
-0.004342113090180296 -0.0013199922730522797  0.
-0.0045239966897845365 -0.0018513255160560488  0.
-0.005345631416080717 -0.002679993268205124  0.
-0.005472568686588573 -0.003392105337197089  0.
-0.00654382823569115 -0.004565160151364693  0.
-0.006604853265819246 -0.005514197095044595  0.
-0.008151747531923664 -0.007281760637602858  0.
-0.008213874574212519 -0.008527786254460122  0.
-0.01079927077891261 -0.011496051933196326  0.
-0.011823931694605438 -0.012831235738431084  0.
-0.015639500877205836 -0.016397676166521557  0.
0.018726378518166456 -0.01919925945355467  0.
0.016890574691675826 -0.01777199255637249  0.
0.013972871137357741 -0.014486790362409758  0.
0.012980878493204702 -0.01302650828957834  0.
0.010904020460548771 -0.010487332782488779  0.
0.01038989546589966 -0.009177208523247592  0.
0.008944030760172725 -0.00740220901791084  0.
0.008518507646407216 -0.0063446180387364244  0.
0.007424801720674193 -0.005053226552875877  0.
0.007004430390167295 -0.00421920187377941  0.
0.006119258828400296 -0.0032505786732453614  0.
0.00568508616776369 -0.0026016945954221546  0.
0.004933044452385674 -0.0018656588894257436  0.
0.004480689600159452 -0.00137177361892936  0.
0.0038194004922284725 -0.0008151139053279571  0.
0.0033474520542235778 -0.00045500611441542314  0.
0.002751572770061318 -4.504377993843457e-05  0.
0.0022585623326711398 0.00019523166566740282  0.
0.001712205134948752 0.0004787643550374106  0.
0.001195678388028182 0.0006072870308160021  0.
0.0006886141349961677 0.000776420267684868  0.
0.0001446721311077585 0.0007962298673504999  0.
-0.00032967360757583627 0.0008569363548061315  0.
-0.0009068603455684098 0.0007662686966904716  0.
-0.0013524754641600122 0.0007195117982224715  0.
-0.001971422531659129 0.0005114175128196912  0.
-0.0023902579582330058 0.0003534634616439536  0.
-0.003063453878780513 1.4643022257468392e-05  0.
-0.0034556783301266532 -0.00026321160734323447  0.
-0.004201853658525677 -0.0007547830535902556  0.
-0.004566005644845955 -0.0011670328742836257  0.
-0.005414302744432871 -0.0018466455487598044  0.
-0.005747821566087752 -0.002414924943179578  0.
-0.006745835550851411 -0.003339952717598568  0.
-0.0070477050940426075 -0.004094515695371913  0.
-0.008277846159485994 -0.005362276304954863  0.
-0.008560796342987053 -0.006341150081919036  0.
-0.010174398397644313 -0.008125166087368591  0.
-0.010522140836580814 -0.00935766853660274  0.
-0.012798174208672346 -0.011955380459328662  0.
-0.013648041668526201 -0.01335890801812155  0.
-0.016808426101598592 -0.016680047429586203  0.
-0.018505605818672735 -0.01806261741087041  0.
0.02312351736536384 -0.022790754982967714  0.
0.02014202561688713 -0.019598602985554252  0.
0.018532589852265184 -0.018079400495352765  0.
0.01595410500064004 -0.015120867707622802  0.
0.01492763884768222 -0.013650764092537761  0.
0.012954338903284561 -0.011323081553296055  0.
0.012228204029587703 -0.01003109304902893  0.
0.010710182582819366 -0.008280140069432116  0.
0.010078674015996185 -0.0072155445703671155  0.
0.008853962643652043 -0.005883984097195923  0.
0.008246923887961511 -0.005031882379919444  0.
0.007214610300723073 -0.004009111536334415  0.
0.006606817632059954 -0.0033439756659251084  0.
0.005706254992023376 -0.0025592990756970126  0.
0.005086995520640514 -0.0020588668146490695  0.
0.004280659677724098 -0.001467056042465492  0.
0.0036437935187137237 -0.0011149651695682953  0.
0.0029075721979619773 -0.0006869460680074065  0.
0.0022479592364902366 -0.0004726807107473653  0.
0.0015658359785329634 -0.00019015961112780024  0.
0.0008778098629690447 -0.00010862072988122118  0.
0.0002388929417449367 3.8951894634478424e-05  0.
-0.0004846835729470462 -1.2359205897690173e-05  0.
-0.001087882092386768 4.728868401652979e-06  0.
-0.0018565284515271571 -0.0001850506180482374  0.
-0.0024291439987991384 -0.0002992731061254878  0.
-0.0032559887257196823 -0.0006395459174082747  0.
-0.003801542971694985 -0.0008909896651750253  0.
-0.004705237999708929 -0.0014020403437006194  0.
-0.005226399908157327 -0.0018019169186592621  0.
-0.006234291780237986 -0.00251565039819608  0.
-0.006734270237495551 -0.0030808948015697557  0.
-0.007887878699130347 -0.004046771533475041  0.
-0.008374069005480926 -0.004800055003546017  0.
-0.009738657346778952 -0.006095319887169259  0.
-0.01023368347981164 -0.007062558589340238  0.
-0.011914106297493085 -0.008807663716011459  0.
-0.012491166634184503 -0.01000568733945162  0.
-0.014648752945398332 -0.012368004409255489  0.
-0.015537136412942396 -0.013760223303925984  0.
-0.018326469145367334 -0.01676742501900027  0.
-0.019820372851309807 -0.018234045509130572  0.
-0.02301434686996304 -0.021424048067033366  0.
0.02644502476888542 -0.024619737626461035  0.
0.024523614283962228 -0.02301516144579311  0.
0.021722456458356774 -0.01996329709846873  0.
0.020185892235097532 -0.01841496354167216  0.
0.017782573739526488 -0.01571798434095135  0.
0.01664776840253427 -0.014275131653715396  0.
0.014700087066435157 -0.012102008355055005  0.
0.013780473985662125 -0.010845789965818194  0.
0.012186494277858393 -0.009142254823140223  0.
0.011357241841687855 -0.008099294960689707  0.
0.010012683498576414 -0.00676723336755159  0.
0.0092171180410654 -0.00592931930250884  0.
0.008048456423264036 -0.00489086499067334  0.
0.007259927125457958 -0.004241237111249564  0.
0.006218211784116191 -0.0034417576191740516  0.
0.005422213940162514 -0.002964818262906872  0.
0.004474647914534026 -0.0023671886516364576  0.
0.0036613346329721686 -0.0020514565696281542  0.
0.0027854231323280014 -0.0016310347105485397  0.
0.0019462631439411207 -0.0014699027845328347  0.
0.0011261592896149699 -0.0012111693130989493  0.
0.0002521722401364484 -0.0012031350482815232  0.
-0.0005236254858229057 -0.0010976091041555794  0.
-0.0014431227860315832 -0.0012466039500085352  0.
-0.002183282822495886 -0.0012916416005807857  0.
-0.00316193901924746 -0.001607757833597219  0.
-0.003873442256646837 -0.001805932761679724  0.
-0.004929507474645858 -0.002306797619193733  0.
-0.005618814918020584 -0.0026656384406198827  0.
-0.006777538897954953 -0.0033787623744972605  0.
-0.0074523433805226795 -0.00391056068730271  0.
-0.008749661425375163 -0.00487711325243938  0.
-0.009422481545523505 -0.005598233175567565  0.
-0.010910597048694497 -0.006878598302731163  0.
-0.011607266625322424 -0.007806810019210537  0.
-0.013362139208857407 -0.009486571929164897  0.
-0.014142643460623147 -0.010632625026752128  0.
-0.016268408443498576 -0.01281702352042923  0.
-0.017270961325918568 -0.014162889181279503  0.
-0.019870621226184625 -0.01689707764256947  0.
-0.02129602797494648 -0.018373827786714574  0.
-0.024308087612731805 -0.021450210979113645  0.
-0.026103195213943282 -0.02300761039060104  0.
0.030678637813026925 -0.027881132034815986  0.
0.027849074747489946 -0.02487663342099531  0.
0.02594365192318587 -0.02325606537922004  0.
0.023265740462581758 -0.02039016672296277  0.
0.021702895059269634 -0.018856332796360856  0.
0.019378680452076923 -0.016366483702777112  0.
0.018106692190707915 -0.014971373424182402  0.
0.016142399611796993 -0.012926927406781486  0.
0.015037802834540348 -0.011721103473230209  0.
0.013362078755753197 -0.01007881882325315  0.
0.01234055499656406 -0.009078424654523498  0.
0.010880895634444119 -0.007772504537491983  0.
0.009896091668132165 -0.006973172850212941  0.
0.008596821333346997 -0.005947421818474459  0.
0.007622470166253455 -0.0053385833639820355  0.
0.006443452307932902 -0.004550943658924605  0.
0.005462748254053505 -0.004122513296263593  0.
0.004375195406058224 -0.0035431642174330335  0.
0.0033753622945862974 -0.003288235480081407  0.
0.00235828097804511 -0.0028970160930623288  0.
0.0013276988061250406 -0.0028129842096012536  0.
0.0003653293173353651 -0.0025973630864330266  0.
-0.0007082685475575718 -0.0026865697552135395  0.
-0.001628286456573783 -0.002640256112620799  0.
-0.002759245701649459 -0.00291069224107382  0.
-0.0036473158491964223 -0.0030327413437454946  0.
-0.004853556992836288 -0.0034990892937768955  0.
-0.005719533808734615 -0.0037933056383059405  0.
-0.007024428398097498 -0.004478541353308989  0.
-0.007879468814445501 -0.004952916664251381  0.
-0.009314353267256817 -0.005890622936386593  0.
-0.010174081162271364 -0.006556347399219559  0.
-0.011781580766717155 -0.007793597160217499  0.
-0.01267227728387125 -0.008662674672721483  0.
-0.014509893969893951 -0.010261909007206608  0.
-0.015480896690124339 -0.011341430320387286  0.
-0.017621459407823815 -0.013374153644483085  0.
-0.018765721888864988 -0.014654396587432781  0.
-0.021280840210883778 -0.017161593316364555  0.
-0.02273322058880158 -0.01860262661522003  0.
-0.025617321710765657 -0.02149472746186754  0.
-0.027419305979514842 -0.023049817113805826  0.
-0.03044976316010121 -0.02607221062131379  0.
0.03413594226637348 -0.029862762305475632  0.
0.03200875311579477 -0.02813807569127615  0.
0.029192713150567384 -0.025230161110155292  0.
0.0272641013535159 -0.023622689920121953  0.
0.024653862579859517 -0.020941190819299228  0.
0.023009139343864924 -0.019449473853181912  0.
0.020706257622157838 -0.017131006976884654  0.
0.01928397852047743 -0.015797373704933927  0.
0.017276952204039162 -0.013868968806258607  0.
0.01599130391860958 -0.012726013252795099  0.
0.01422767774269416 -0.011154548619456108  0.
0.013016871555062585 -0.010213260537859124  0.
0.011443076564219612 -0.008952423565597016  0.
0.010268098811253375 -0.008211091937549849  0.
0.008840336634471188 -0.0072194872597576756  0.
0.007675780894610829 -0.006672167574649645  0.
0.0063603815371132055 -0.005917439404963926  0.
0.005187920838832465 -0.00555862994375501  0.
0.003959212787708112 -0.005017190938999699  0.
0.0027636792161047077 -0.004844148118312151  0.
0.001601768020118282 -0.004499948456125429  0.
0.00036872764318225285 -0.004513920763101404  0.
-0.0007423903466018661 -0.004357240351421633  0.
-0.0020283588843959476 -0.004564343281458033  0.
-0.0031023741578192258 -0.00459083711139634  0.
-0.00445917352571679 -0.005002951096021616  0.
-0.005508979278444159 -0.005212885486714161  0.
-0.006958557932795419 -0.005848779747625505  0.
-0.00799806715617182 -0.006246281062919386  0.
-0.00956822966553082 -0.007133015869474698  0.
-0.010615042727577595 -0.007724989957163933  0.
-0.012341505156840545 -0.008899328522355096  0.
-0.013421403993612238 -0.00969344959263296  0.
-0.015349530483596184 -0.011202013545700218  0.
-0.016504087407088024 -0.012202744642661491  0.
-0.018688124607361897 -0.014096736790399857  0.
-0.019985225524321654 -0.015298268544680225  0.
-0.022477999944747935 -0.017611464791761643  0.
-0.024012050258308916 -0.01898975220253995  0.
-0.02682631450216959 -0.021685426066759116  0.
-0.028658577967477485 -0.023205774480436276  0.
-0.03168649377675251 -0.026132973569627755  0.
-0.03370572260924724 -0.02780107985162726  0.
0.03828019073923853 -0.033115063768245  0.
0.035407725249260474 -0.030211646931311335  0.
0.03320266037050235 -0.028517171914075212  0.
0.030398086250705815 -0.025741592089037254  0.
0.028407072344481005 -0.02417189738398749  0.
0.02582098023333413 -0.021660772677930908  0.
0.02406338805840792 -0.02022915291823882  0.
0.021745021769560415 -0.018059773110941823  0.
0.020165263773325077 -0.016798253857031025  0.
0.018097487307627162 -0.014979581873284046  0.
0.016632242920838213 -0.013910366633446448  0.
0.01477448105983669 -0.012417033897113338  0.
0.013375456234872617 -0.011548580394481315  0.
0.011686033407695742 -0.010346907341142929  0.
0.01031930514899738 -0.009679603190979512  0.
0.008762454074682766 -0.00873863709695812  0.
0.007403424986549498 -0.008270172870777477  0.
0.005950096051397928 -0.007565026422061144  0.
0.004579299454716341 -0.007293748278511331  0.
0.0032060506554708558 -0.006805986363057408  0.
0.0018062858428200433 -0.006732844859816523  0.
0.0004937787994226781 -0.006449945366241453  0.
-0.0009519226974722165 -0.006579703925142122  0.
-0.002220415888478994 -0.006494321555083788  0.
-0.0037303689217666807 -0.00683649040749368  0.
-0.004970456804583058 -0.006945715184946939  0.
-0.006565743480905758 -0.007515435277085606  0.
-0.007793606099109516 -0.007819999925607765  0.
-0.00949949184986896 -0.008638927194753714  0.
-0.010734118882672155 -0.009142161591564894  0.
-0.012581401182256015 -0.01023910361065244  0.
-0.013847895551079034 -0.01094526845925784  0.
-0.015873783172629156 -0.012355686872982634  0.
-0.01720822194860706 -0.01326712692580614  0.
-0.019455307940512815 -0.015029040641612635  0.
-0.020910563978729015 -0.016141717996527926  0.
-0.023420086228399993 -0.018282456832896768  0.
-0.025066042923015702 -0.019581067506223116  0.
-0.02785644864687884 -0.02208765824753837  0.
-0.02975191695855509 -0.023547910036233303  0.
-0.03277307023513077 -0.026333829550677222  0.
-0.03488757235139572 -0.027947842375245644  0.
-0.03797570325877847 -0.030876975930008276  0.
0.0418400582985906 -0.03535771013491367  0.
0.0394314233666479 -0.033550176254938564  0.
0.03649968309842478 -0.03073374370260841  0.
0.03421393746433869 -0.02908301846060513  0.
0.0314059825034626 -0.02645084595597464  0.
0.029323201762690806 -0.024937553950925343  0.
0.026728858616501865 -0.022582414054598036  0.
0.024840208365702703 -0.021223517877586504  0.
0.022481211384079443 -0.019189349584780885  0.
0.020739170589753674 -0.018008892863869832  0.
0.018596989529272582 -0.01629692160925772  0.
0.016952069215513964 -0.015311085955797976  0.
0.014993805820573806 -0.01390174968520952  0.
0.013406193566235345 -0.01311785434446181  0.
0.011597890989580802 -0.011986112656994286  0.
0.010037159131678953 -0.01140634148871498  0.
0.008348503449857998 -0.010528807429394623  0.
0.00679063613796203 -0.010153803612233073  0.
0.005195757246598666 -0.009511335796819015  0.
0.003620350895060527 -0.009342680399178538  0.
0.002097201303919576 -0.008920978434335355  0.
0.00048529965906757977 -0.008962792358115305  0.
-0.0009854811659280346 -0.008752181624115743  0.
-0.0026530591934048582 -0.009012219317029333  0.
-0.0040894481364467964 -0.009007136748600994  0.
-0.005833484899466744 -0.00949761407098681  0.
-0.007253573103770169 -0.009695917734844562  0.
-0.009097654026568428 -0.010434146144322972  0.
-0.010521515712903114 -0.010836190265821449  0.
-0.012493024916389225 -0.011844852978337336  0.
-0.013945182644176277 -0.012452122798510006  0.
-0.01607579257551015 -0.013758597610868506  0.
-0.01758848061964211 -0.014571626295140106  0.
-0.019913206034262537 -0.016204883055172297  0.
-0.02152981316156767 -0.01722027241833518  0.
-0.024082477447900597 -0.01920243723250367  0.
-0.025857639613948002 -0.020409729026118255  0.
-0.02865813350775878 -0.0227386160919965  0.
-0.030643476052028006 -0.024120786931800774  0.
-0.03367107988205671 -0.026747412815098615  0.
-0.03587203279599096 -0.028293679588598904  0.
-0.03903220026651799 -0.031122999055127876  0.
-0.04135330486511481 -0.03285961277596463  0.
0.04591497820412006 -0.038761777444685244  0.
0.042890330792907695 -0.03592024987443257  0.
0.04036162149612946 -0.034172766367824195  0.
0.03738306121838645 -0.031467686498583995  0.
0.035004151382647994 -0.02987451959094312  0.
0.032175355758979986 -0.02738587112258848  0.
0.02998030862988394 -0.025942794241347503  0.
0.027353444315499794 -0.023731968051473148  0.
0.025322166630592967 -0.022455405708148676  0.
0.02290410034961581 -0.02054771515577235  0.
0.020995936163591522 -0.019456147563119308  0.
0.018768150599940123 -0.01784961568628779  0.
0.01694241836230965 -0.016955749834957123  0.
0.01487706219342066 -0.015635189435277582  0.
0.013099449396016961 -0.014945979792226186  0.
0.01116765958994414 -0.013892495721278058  0.
0.009410117809362063 -0.01341170370763748  0.
0.007585228128305871 -0.01260748590613428  0.
0.005824088604425763 -0.012338179859069001  0.
0.004082293449541182 -0.0117684888902418  0.
0.00229633797127157 -0.011714912070888582  0.
0.0006162415731325962 -0.011368656193690901  0.
-0.001214961089352798 -0.011537507128080925  0.
-0.002853287030716844 -0.01140714772590323  0.
-0.004750723610679658 -0.011808465868524015  0.
-0.006366966363231611 -0.011889565523536138  0.
-0.00835327373072885 -0.012537294279844683  0.
-0.009968395303258512 -0.012827783055604015  0.
-0.012068690360737221 -0.013739923034195816  0.
-0.013706815089819822 -0.014239019511971207  0.
-0.015949016255641282 -0.015436983394445292  0.
-0.01763970950016532 -0.016143645824256224  0.
-0.020053804879232584 -0.017649944712018875  0.
-0.021834240812716135 -0.018560801962224448  0.
-0.024449178685857453 -0.020393444312488938  0.
-0.0263641881325102 -0.021500701307354944  0.
-0.029199905459384515 -0.0236623554417892  0.
-0.031294214459384254 -0.024953696581281257  0.
-0.034345518052486694 -0.027416877961124346  0.
-0.03663953287063575 -0.028882121574191972  0.
-0.03985359991211001 -0.03158337052815993  0.
-0.04230573231739862 -0.033232818572089054  0.
-0.04557197295551032 -0.03609894003568043  0.
0.04954678414358911 -0.041322213135755834  0.
0.04681189730122976 -0.039458388640489284  0.
0.04369527804010718 -0.036703793342467546  0.
0.041054836836731494 -0.035022054126044866  0.
0.03802955980717044 -0.0324398442133789  0.
0.03554411677795904 -0.03091621161924693  0.
0.03267795904583519 -0.028567216741201912  0.
0.03035629030066239 -0.027204832052745247  0.
0.027678145932659534 -0.025129529576024854  0.
0.02549617011118044 -0.023943090592279056  0.
0.023004546053563724 -0.022156275615403752  0.
0.020926807627910205 -0.021160562118378887  0.
0.01860358926580828 -0.01965911824990035  0.
0.016595171448031885 -0.018864852950958865  0.
0.014415833755386541 -0.017636923808971222  0.
0.012446077598764458 -0.017051126052592607  0.
0.010385108493216501 -0.016082297687449832  0.
0.008427565256965402 -0.015710095097617883  0.
0.006460647858033887 -0.014986700425963473  0.
0.0044918388190010716 -0.014833126667100552  0.
0.002596344915005406 -0.014343745712031059  0.
0.0005943622568325458 -0.014415130813549174  0.
-0.0012510628832127007 -0.014151057546101445  0.
-0.003307803424195706 -0.014455999252464604  0.
-0.005124096625993908 -0.014411145331555159  0.
-0.007257873554534615 -0.014961099758629571  0.
-0.00906672089359194 -0.015131522542717886  0.
-0.011301243037310756 -0.01594096285156335  0.
-0.013126528994522428 -0.016324069074546758  0.
-0.015487230005031537 -0.01740997651089206  0.
-0.017356660499246324 -0.01800337304207859  0.
-0.019870181739147296 -0.01938353243416299  0.
-0.02181675236376056 -0.020183561236997077  0.
-0.024508793070146657 -0.021872731957548318  0.
-0.026570829496887518 -0.022873012962921584  0.
-0.02946097489981671 -0.024875914724463488  0.
-0.03167766773444869 -0.026067073460761245  0.
-0.03476928544632772 -0.02836857178178473  0.
-0.03716670371381434 -0.02974181869931394  0.
-0.04043205569223482 -0.03230037440748683  0.
-0.04299868136017926 -0.033858381794286914  0.
-0.04636774324675959 -0.03661631997661196  0.
-0.049035365552063316 -0.038390782930188855  0.
0.053555595054348065 -0.04496736104327338  0.
0.05031345364017936 -0.042167880747312425  0.
0.047440759413616224 -0.04038382459132819  0.
0.044246675091048446 -0.037732432477744104  0.
0.04149319542881281 -0.03612387590161709  0.
0.038415612372957625 -0.033668753172952634  0.
0.03581195777322474 -0.032224514064359125  0.
0.03289373519905159 -0.030010370268878678  0.
0.03043502104046579 -0.028736904916420895  0.
0.0276904913951116 -0.026790645645732514  0.
0.025351634579067098 -0.025700879256192157  0.
0.022774373240885656 -0.02403126076037879  0.
0.020523734243487732 -0.023137582426086382  0.
0.018096016401403667 -0.021741277054932673  0.
0.015902537063248914 -0.021053301671043762  0.
0.013602003883009185 -0.019921011096061807  0.
0.01143749953767163 -0.019446026898600317  0.
0.009240771928716912 -0.018566640484561765  0.
0.007079874698466192 -0.018310908969814223  0.
0.004964054209815298 -0.01767383283836719  0.
0.002783385489990669 -0.017643895074154363  0.
0.0007263347004507614 -0.017240146923053687  0.
-0.0014965203299068337 -0.01744382178482869  0.
-0.003516578949972534 -0.01726636393869538  0.
-0.005803968624978533 -0.01771339348262464  0.
-0.007809252499004991 -0.017756979321100635  0.
-0.010184127529252733 -0.01845925571164215  0.
-0.012198354551359742 -0.018719919367578122  0.
-0.014684579541111192 -0.01969114684298451  0.
-0.016734156089541253 -0.020165390976536753  0.
-0.019356163373523205 -0.021419851934697417  0.
-0.021471213872743988 -0.02210360658817736  0.
-0.02425254628003706 -0.023653504260770206  0.
-0.026466961937909924 -0.024541092021978798  0.
-0.02942681945878731 -0.02639185365431117  0.
-0.031775582254345174 -0.027475690635506717  0.
-0.03492228790922715 -0.02961935500149482  0.
-0.03743311823272174 -0.030891940658978923  0.
-0.040754246790922814 -0.03330155982702157  0.
-0.04343198714443779 -0.03476199782074608  0.
-0.04688500155201523 -0.03739465830993079  0.
-0.04969528100838105 -0.0390604553177949  0.
-0.05320938135950459 -0.04187648611115162  0.
0.057233170162354026 -0.0478755534872574  0.
0.054146660655569306 -0.0459749619794536  0.
0.050798443397013664 -0.04326483012238376  0.
0.04779859301396573 -0.04156211577555746  0.
0.044531926732381176 -0.03902329999496272  0.
0.0416603703560284 -0.03749532634866701  0.
0.03852253009831961 -0.03516775855675289  0.
0.035791004616827674 -0.0338109375335088  0.
0.032807770254212325 -0.03172707113637038  0.
0.030204056300188038 -0.030549189560209276  0.
0.027380427080026398 -0.028727154720659436  0.
0.024879597060987982 -0.027739672913600435  0.
0.022206088756104223 -0.02618470984601224  0.
0.01977926507105992 -0.025398481423277285  0.
0.01723839073089929 -0.02410744583293065  0.
0.014857165290825201 -0.023531487858738855  0.
0.012427917602895956 -0.022497040218871025  0.
0.010065808042894921 -0.022138955731293597  0.
0.0077260778929727075 -0.02135241975647769  0.
0.00535849691021467 -0.02121934183454981  0.
0.0030861104877617255 -0.02067236377112849  0.
0.0006897744433826544 -0.020771868140119054  0.
-0.001537401930128047 -0.020457190128257644  0.
-0.003985172941621532 -0.020797956230115447  0.
-0.0061896287874693735 -0.020709611728354636  0.
-0.008711490973282745 -0.021301725861988415  0.
-0.01091677664587655 -0.021434825380461847  0.
-0.013535665531919384 -0.022289606515232697  0.
-0.01576724646043515 -0.02263982457296409  0.
-0.01850619492445393 -0.02376896680710115  0.
-0.020792160108715655 -0.024331821143029925  0.
-0.023673313564693852 -0.025745534907740564  0.
-0.026044456775690113 -0.02651566242466877  0.
-0.02908672520399238 -0.028219452021868513  0.
-0.03157487564303128 -0.029190338130543024  0.
-0.03478960156365295 -0.031180460728737692  0.
-0.03742247867056431 -0.03234558243474629  0.
-0.04080681607996603 -0.03460466547068618  0.
-0.04359803086446031 -0.03596147470333069  0.
-0.04712780788250565 -0.03845851739478719  0.
-0.050064517226510646 -0.040016215499744906  0.
-0.05369245482038859 -0.0427165649598942  0.
-0.05673054090384186 -0.044505820590150395  0.
0.06117383459020627 -0.051813771774658485  0.
0.057673733141421546 -0.049045386128888264  0.
0.054443740300015545 -0.047237621893396496  0.
0.051002099150886014 -0.04462774242489164  0.
0.047877984648108864 -0.0430100121811719  0.
0.044538110117869095 -0.04058854393457273  0.
0.041542363533402495 -0.03914784013712397  0.
0.03833552442488553 -0.03694653371609389  0.
0.03546816959354996 -0.03568368353780837  0.
0.03240841876790454 -0.03372608553169637  0.
0.029653293842664644 -0.0326492785482867  0.
0.02673946338538088 -0.030947802734437847  0.
0.02407221240683498 -0.03006739563476777  0.