<?xml version="1.0"?>
<VTKFile type="UnstructuredGrid" version="0.1" byte_order="LittleEndian" compressor="vtkZLibDataCompressor">
<UnstructuredGrid>
<Piece NumberOfPoints="7224" NumberOfCells="7014">
<PointData>
<DataArray type="Float64" Name="displacement" NumberOfComponents="3" format="ascii" >
0.0 0.0  0.
0.0 0.0  0.
0.0 0.0  0.
0.0 0.0  0.
0.0 0.0  0.
0.0 0.0  0.
0.0 0.0  0.
0.0 0.0  0.
0.0 0.0  0.
0.0 0.0  0.
0.0 0.0  0.
0.0 0.0  0.
0.0 0.0  0.
0.0 0.0  0.
0.0 0.0  0.
0.0 0.0  0.
0.0 0.0  0.
0.0 0.0  0.
0.0 0.0  0.
0.0 0.0  0.
0.0 0.0  0.
0.0 0.0  0.
0.0 0.0  0.
0.0 0.0  0.
0.0 0.0  0.
0.0 0.0  0.
0.0 0.0  0.
0.0 0.0  0.
0.0 0.0  0.
0.0 0.0  0.
0.0 0.0  0.
0.0 0.0  0.
0.0 0.0  0.
0.0 0.0  0.
0.0 0.0  0.
0.0 0.0  0.
0.0 0.0  0.
0.0 0.0  0.
0.0 0.0  0.
0.0 0.0  0.
0.0 0.0  0.
0.0 0.0  0.
0.0 0.0  0.
0.014760246063257139 -0.02015337136907887  0.
0.005417952099846934 -0.01060726379488063  0.
0.006253125112576429 -0.008544617120790823  0.
0.0045146728744846956 -0.006272595386516337  0.
0.004694406864387546 -0.005088295843937389  0.
0.003881001594328173 -0.0038824985091022563  0.
0.0038640343821954074 -0.0030799324592426314  0.
0.0033381052293310364 -0.0022821403062376366  0.
0.003234829661547276 -0.0016967107171500003  0.
0.0028374085009621962 -0.0011195493785154575  0.
0.002687464580439396 -0.0006777440301991245  0.
0.0023606089751446705 -0.0002430708291193407  0.
0.002181435118938629 9.39620626658586e-05  0.
0.0018990317845242286 0.00042585568225013664  0.
0.001699121667403201 0.00068066667080721  0.
0.0014477720750912895 0.0009322581502461347  0.
0.001231307523671623 0.0011184932155583875  0.
0.001003626535957255 0.0013031296326206099  0.
0.0007723460921476709 0.0014289361352909304  0.
0.0005642315857738664 0.0015544265491716266  0.
0.0003182218489354736 0.001624119521714137  0.
0.0001276576583453667 0.0016944458832787589  0.
-0.0001343824165573164 0.001709290074063566  0.
-0.0003078148208788786 0.0017253823833382825  0.
-0.0005886500806972941 0.0016838129206887698  0.
-0.0007438362016908634 0.0016437460861407217  0.
-0.0010481174240041104 0.0015411156306900026  0.
-0.0011820969315148356 0.0014398191843799793  0.
-0.0015173012305508872 0.0012675724256033733  0.
-0.001624433300990217 0.0010959528576833636  0.
-0.0020027890202838515 0.0008398742626975493  0.
-0.0020729439685387885 0.0005829879872315158  0.
-0.0025155579277062945 0.00021959761123637912  0.
-0.002530118430363337 -0.00014704767172733226  0.
-0.003076747068145637 -0.0006584788665763102  0.
-0.0029988932341978485 -0.0011769963833562283  0.
-0.0037349013182918613 -0.0019149966096499076  0.
-0.0034820658513399797 -0.002665570827352747  0.
-0.004632198862453464 -0.003814092603608558  0.
-0.003977417223739713 -0.004982070034948659  0.
-0.006390164567055817 -0.007172114779858847  0.
-0.004447415524269267 -0.00941531067173184  0.
-0.016214111898340967 -0.018601894232429143  0.
0.021149634542086737 -0.025397038300813964  0.
0.01734886761359292 -0.023096642480578893  0.
0.0116536302217367 -0.016169494947541337  0.
0.011618571089049078 -0.013652935693161889  0.
0.009319984698182793 -0.010500717846754022  0.
0.009191241676382765 -0.008738454070624745  0.
0.007837832258824362 -0.00679562037294174  0.
0.007589587924742835 -0.005505507795469864  0.
0.006626496461587552 -0.004147650151565156  0.
0.006301033861936775 -0.0031722177847847213  0.
0.005539354997257863 -0.0021658694194794923  0.
0.005162611986795525 -0.001418105950804511  0.
0.00452119690444609 -0.0006528875731716141  0.
0.004107196097080836 -8.156276657778541e-05  0.
0.003545623868382263 0.0005023773166478726  0.
0.0031015126142882135 0.0009286666286699326  0.
0.0025976483934537073 0.0013663054545904692  0.
0.0021263774579793095 0.001666815738188162  0.
0.0016674818590270489 0.0019790395330748388  0.
0.0011690731045639808 0.0021647621711045222  0.
0.0007478892704996369 0.002363396810370619  0.
0.00021990192613731213 0.0024389860737971487  0.
-0.0001671423676096904 0.0025292238875092386  0.
-0.0007297005908453301 0.0024937423596000253  0.
-0.001083206044466017 0.0024751533375171717  0.
-0.0016885128332604661 0.002321898423730969  0.
-0.002006105893806958 0.0021884773387415494  0.
-0.002666923519497133 0.001903810980260834  0.
-0.0029425528550177486 0.0016431150921577089  0.
-0.003678985592208809 0.0012038113849593057  0.
-0.0039011972946684783 0.0007949176306819668  0.
-0.004746248560640689 0.00016274479232361014  0.
-0.004894596196075511 -0.00042774513504191677  0.
-0.005906216101033926 -0.0013175397639395715  0.
-0.005943760688873753 -0.0021432431986307663  0.
-0.00723412507189272 -0.003409298805304805  0.
-0.007091395777386825 -0.004559857519629697  0.
-0.0089104879619113 -0.00645232830427305  0.
-0.008454588161985205 -0.008087530109592981  0.
-0.011493295096336356 -0.011276624892644097  0.
-0.010569899946921214 -0.013682869154771975  0.
-0.017599602985830718 -0.02092796279738621  0.
-0.02086743890585985 -0.023012308266067184  0.
0.030562297787439043 -0.03495638714703958  0.
0.023909178170680907 -0.02784383859676112  0.
0.021494643847921716 -0.025091807131920878  0.
0.017090673819757124 -0.01949208558399212  0.
0.016404263500538457 -0.01686483368892029  0.
0.013867008411198745 -0.013436676005586163  0.
0.013320107922867723 -0.011402658979353813  0.
0.01158542317458129 -0.009051924453140325  0.
0.011011759964875014 -0.007483527910189962  0.
0.009684085288223003 -0.005761345741734321  0.
0.009067646054928642 -0.004544413733553973  0.
0.007976099384438006 -0.0032395498103678453  0.
0.007320346309632862 -0.0022978349005130126  0.
0.006380480272419771 -0.0012975875429779395  0.
0.005689273530193093 -0.0005816462079013445  0.
0.004855021895462403 0.00017930552252163508  0.
0.004129766356110544 0.0007010870599086464  0.
0.0033742829851714 0.0012621624451958707  0.
0.0026136817573972366 0.001608958685312038  0.
0.0019208245322006779 0.001993689235447833  0.
0.001120862967443497 0.0021751951787644277  0.
0.000481134745061395 0.0023961744260910106  0.
-0.00036523851272069813 0.0024139793548204184  0.
-0.0009566385205475926 0.0024752519132920595  0.
-0.0018603134055404462 0.00232297559133508  0.
-0.0024042700258500656 0.0022208959267317027  0.
-0.0033815452983220304 0.0018830881220601155  0.
-0.003874989803183369 0.0016060231174634292  0.
-0.004950479370070926 0.0010553903431802173  0.
-0.005385569320253784 0.0005822594991941452  0.
-0.006597653139369983 -0.00022594816538069063  0.
-0.006960007632726288 -0.0009286256500909854  0.
-0.00837164623525981 -0.002067919146042925  0.
-0.00863749672308815 -0.0030511409969521722  0.
-0.010359380906586967 -0.004648091670152154  0.
-0.010493195945301828 -0.0059884504451544985  0.
-0.012738473405352745 -0.008280860941192932  0.
-0.012706086938596269 -0.010089355040029307  0.
-0.015935209445812552 -0.013584764979197158  0.
-0.015860296114085456 -0.01598104140325892  0.
-0.02118179953073113 -0.021898733759266743  0.
-0.023064110216958877 -0.024504000509625538  0.
-0.03085221509780643 -0.03146239129712582  0.
0.037056778361633694 -0.03895406092349036  0.
0.033313920666387324 -0.03608521065610028  0.
0.027800763700081204 -0.029665765808395275  0.
0.025716761147731883 -0.026730958382957325  0.
0.021814478548385238 -0.02179397796058639  0.
0.020650947827864814 -0.019144636985896066  0.
0.017955374871170663 -0.015663022105934093  0.
0.016989701089936443 -0.013511756690807274  0.
0.014958430031118804 -0.010952033034314653  0.
0.014025028687632283 -0.009240404274946268  0.
0.012383851953946956 -0.007297638853954111  0.
0.011439249280079819 -0.0059489351888861765  0.
0.010046281299239625 -0.004451778799141334  0.
0.009076812441750879 -0.003406403920216597  0.
0.007853263337338188 -0.002253593970615817  0.
0.006852499269708925 -0.001469950975715591  0.
0.005751790039917029 -0.000599305856446125  0.
0.004714140339283996 -5.0339512185084465e-05  0.
0.003707473120832483 0.0005766028982020729  0.
0.002625963410884036 0.0009062720067601274  0.
0.0016951919477476622 0.0013121565756905886  0.
0.0005602720574841134 0.0014278721429442152  0.
-0.00030579562925611714 0.0016236489572026707  0.
-0.001507431390750145 0.001521152540724933  0.
-0.0023149359925120554 0.0015080396117089687  0.
-0.0036020376531790952 0.001172648265346088  0.
-0.0043529580151555535 0.0009426822272684243  0.
-0.005752471437302319 0.000346869769050817  0.
-0.00644490459732274 -0.00011767011329119792  0.
-0.007996710860776267 -0.0010191646492453174  0.
-0.008624887365316069 -0.001747390075841428  0.
-0.010390366255382925 -0.0030268862648196804  0.
-0.010945344090713701 -0.00406193495278121  0.
-0.01302360657987529 -0.005836897638653203  0.
-0.01349823627198747 -0.007238786046727123  0.
-0.016058412942405096 -0.009708363079467649  0.
-0.01647237776513902 -0.01155239822534531  0.
-0.019818566714371294 -0.015070856350027233  0.
-0.020339239684749624 -0.017417352668359375  0.
-0.02501426610547385 -0.022583284962549473  0.
-0.026549651039677002 -0.025296207401078834  0.
-0.033003425605152875 -0.03185667898413167  0.
-0.03621008123160914 -0.0345517649747831  0.
0.04560186621430035 -0.046238428320616025  0.
0.03993645553420268 -0.03996752784035436  0.
0.03665770501049318 -0.03691730238200923  0.
0.031782171821912154 -0.031150045380509032  0.
0.02963288644620008 -0.02818186635117836  0.
0.025920526980037148 -0.023639785940162437  0.
0.024354193961436857 -0.021013190802592653  0.
0.02151400750139038 -0.017566973391727334  0.
0.020147190486338732 -0.015385899648579626  0.
0.01786332851928704 -0.012736765521873092  0.
0.01655959386729412 -0.01097226114679202  0.
0.014638292000154632 -0.008911567715596832  0.
0.013345028254550065 -0.007513182659338343  0.
0.011671415500551674 -0.005907457227945212  0.
0.010364233895995608 -0.004831465030566713  0.
0.008868080556545966 -0.0035952446111527495  0.
0.00753206588824048 -0.0028098093833083732  0.
0.006168775939311953 -0.0018882114898301516  0.
0.004791438095579024 -0.0013732002783561005  0.
0.003531808482279438 -0.0007318552278700094  0.
0.0020999048064250176 -0.00047796201141849323  0.
0.0009244875788400285 -9.732280168411635e-05  0.
-0.0005780207053902007 -0.00010570492331154296  0.
-0.0016821250283643038 2.2049774514858625e-05  0.
-0.003276041762797571 -0.00026083168966335046  0.
-0.004317091853967109 -0.0003884021737069971  0.
-0.00603057630177739 -0.0009709918070610245  0.
-0.00701348906835616 -0.0013662493524005538  0.
-0.008886009018528998 -0.0022905952073742904  0.
-0.009813711083723043 -0.002976284021781232  0.
-0.011902465746288402 -0.0043082339713641565  0.
-0.012778551168901666 -0.005318328486582082  0.
-0.01516933363885636 -0.007159780926038291  0.
-0.016005458186183392 -0.008539554024491969  0.
-0.018831101763358032 -0.011049441009041374  0.
-0.019670084827143657 -0.012850909843774553  0.
-0.023139673387702696 -0.016276129038284428  0.
-0.024130206648830563 -0.0185360022762737  0.
-0.02855712444176195 -0.023214011117513592  0.
-0.03017351915082183 -0.02587759056523407  0.
-0.03586640570682295 -0.03183534149572492  0.
-0.038699593675753235 -0.03467943676555884  0.
-0.04518704498822117 -0.04094352754827813  0.
0.052358172883302745 -0.050102226921088844  0.
0.04845398110405712 -0.04688642159280943  0.
0.04313936266250853 -0.040914287986151085  0.
0.04000772126888561 -0.03779449826643406  0.
0.03546300217100535 -0.03253131182945854  0.
0.033105239918967654 -0.029602680599649232  0.
0.029437853095778656 -0.02534443195858104  0.
0.027499301649974026 -0.022774497306125543  0.
0.024510098916447457 -0.01940671684191176  0.
0.02275702051269215 -0.017252675578188083  0.
0.0202426611313842 -0.014589580660400501  0.
0.01856571043495019 -0.012836457164874276  0.
0.016384652232016593 -0.010731831096666365  0.
0.014730052023514342 -0.009347086536888852  0.
0.012789220744784216 -0.007698394020495059  0.
0.011126258996317778 -0.00665179841876104  0.
0.009364003851484032 -0.005389386383546271  0.
0.007671098147773393 -0.0046589706311301994  0.
0.0060456181826741475 -0.003736730464724992  0.
0.004303891027980533 -0.0033102964748855743  0.
0.002786129188483998 -0.002699431070247239  0.
0.0009758864989663117 -0.0025750313653069502  0.
-0.00045488230239372046 -0.002260191611605353  0.
-0.0023567254552837257 -0.0024468394901518043  0.
-0.0037157544707536135 -0.002423911314990022  0.
-0.005738279803481364 -0.002943123544816824  0.
-0.007037506758264823 -0.0032181075810936385  0.
-0.009219129074026038 -0.004106789879099259  0.
-0.010469416716740463 -0.004695352092989647  0.
-0.012862681854156193 -0.00601070027580114  0.
-0.01407731596945294 -0.006937857845980578  0.
-0.016756100190576103 -0.008765194062785892  0.
-0.01795821283289579 -0.010064082778851464  0.
-0.02102827171817263 -0.012528261564563358  0.
-0.02226869588904471 -0.014235339568287531  0.
-0.025881074851451163 -0.01751250671680442  0.
-0.027282290705612215 -0.019652715070166738  0.
-0.03163984612287736 -0.023956152108375036  0.
-0.03348722377483846 -0.026505659045517403  0.
-0.03879301853007664 -0.03191466825122543  0.
-0.041496086640055316 -0.03475365769188192  0.
-0.04762798675340405 -0.0408226431053127  0.
-0.05104423604669775 -0.04385343101515392  0.
0.060579664759903805 -0.05671319272280693  0.
0.05519830995133485 -0.05082659900074791  0.
0.051345063037957224 -0.04756805263572973  0.
0.046268079445051936 -0.04196347138573912  0.
0.04308552866046984 -0.0388567638055956  0.
0.03869117124311065 -0.03398360502331799  0.
0.036067551140554155 -0.031134584072212947  0.
0.03236646707436521 -0.02710965229167337  0.
0.03006886215636481 -0.0246245921916805  0.
0.0269213937398191 -0.02136095602517537  0.
0.02479135591663589 -0.019275387597621794  0.
0.02205632594158303 -0.016649084080786344  0.
0.020004691416345508 -0.01495598386081212  0.
0.01757485904575472 -0.012862034180951942  0.
0.01554941219414427 -0.01154150515266463  0.
0.01334831074039086 -0.009901478109984391  0.
0.011314511705109189 -0.008934489124023429  0.
0.009287863674560493 -0.007692881346447726  0.
0.0072188051025897605 -0.007066757433910023  0.
0.005327431230659476 -0.006186247135923021  0.
0.003198380916770211 -0.00589696181587789  0.
0.0014131795454044868 -0.005354684030197452  0.
-0.000801948250634124 -0.005408201162170671  0.
-0.0025035586048529216 -0.005193207227345713  0.
-0.004835067105734034 -0.005606967235338683  0.
-0.006471941962206821 -0.005718599416850698  0.
-0.00895735022859957 -0.0065237229821761365  0.
-0.010547386766855677 -0.006970542739683418  0.
-0.013235140375141048 -0.0082151996726503  0.
-0.0147990271810049 -0.009013984878585497  0.
-0.01775335030957067 -0.010768225354034482  0.
-0.01932113995140326 -0.011942198046200468  0.
-0.022628220967635174 -0.014303877324144265  0.
-0.024252359331205557 -0.0158784557742042  0.
-0.028026600004693994 -0.0189767384377355  0.
-0.029808015598177452 -0.0209695298604673  0.
-0.034191965257548175 -0.02495044084817463  0.
-0.036322504938144644 -0.027350822927093076  0.
-0.041456760676346543 -0.03229263275526949  0.
-0.044213223351349105 -0.03503570382678941  0.
-0.0500895796263499 -0.04074359894463492  0.
-0.05354407541672118 -0.043744660889182954  0.
-0.059703989993306755 -0.04970312270085  0.
0.06757254185585153 -0.06088217988726364  0.
0.06327665997224384 -0.05742485036953468  0.
0.057930669831012326 -0.05173059332681379  0.
0.05403860266871634 -0.04848207548775538  0.
0.04909288349491267 -0.04323016406264449  0.
0.04574950232021544 -0.04019023447617595  0.
0.04139632478031489 -0.03563446399534091  0.
0.03847967073199383 -0.032891724449883336  0.
0.03469613458720595 -0.02907540589597333  0.
0.03204481900125034 -0.026699466094730645  0.
0.028728420083354897 -0.023557974001571235  0.
0.02622597363412637 -0.021573670848690125  0.
0.0232726471559903 -0.01902036573470813  0.
0.020844057771830196 -0.01742610716657557  0.
0.018169492655261733 -0.015384153250871805  0.
0.015764609496473573 -0.014169477946416681  0.
0.013304594276165264 -0.012578995718909783  0.
0.010886296026056097 -0.011734209564149825  0.
0.008592297237205818 -0.010551724648131734  0.
0.0061292642999741815 -0.010072653255572172  0.
0.003963960843464745 -0.009268866403861884  0.
0.00142609653552833 -0.009159400012311322  0.
-0.0006403555481668685 -0.008717002786387651  0.
-0.0032852541405399404 -0.008990926530406186  0.
-0.005278333806791422 -0.008902880609920108  0.
-0.00806750390377586 -0.009585773669504364  0.
-0.010011345839612648 -0.009853938487319159  0.
-0.012990113123307629 -0.01098555350748784  0.
-0.014911206455663545 -0.011619339117078641  0.
-0.018136447124555963 -0.013256552725097338  0.
-0.020069181629457557 -0.014270988436551684  0.
-0.023613106205691178 -0.016490712492083486  0.
-0.02560922004484308 -0.017902885337811522  0.
-0.029562307563741085 -0.0208021719398867  0.
-0.0317068698442355 -0.02262430011092798  0.
-0.036175925935871586 -0.02630868895006193  0.
-0.03860905209211119 -0.028535999310801193  0.
-0.04369806989927322 -0.03307270005244029  0.
-0.04661426911711041 -0.03566876788193541  0.
-0.05235100680586923 -0.040977213957357865  0.
-0.05587164462709777 -0.04388349403373072  0.
-0.06203953653540778 -0.04965470218685269  0.
-0.06591899784897812 -0.05288893711503302  0.
0.0756051415927305 -0.06746173149781841  0.
0.07014857687205013 -0.061780078150096916  0.
0.06571509856940609 -0.05836484502853811  0.
0.06039616954675376 -0.05292418011040917  0.
0.05638297408505412 -0.049732618131025974  0.
0.051485468851707364 -0.0447998516747689  0.
0.04791987049241005 -0.041862007506446045  0.
0.043537949706694 -0.037579059642236526  0.
0.04031269971337549 -0.034963291207513014  0.
0.03641292973434705 -0.031343271986448075  0.
0.033409001221326326 -0.02909776726716617  0.
0.029912371681164066 -0.026092341454587845  0.
0.02703844556829755 -0.0242366341393423  0.
0.0238642226897889 -0.02178336730458679  0.
0.021054997776810636 -0.02032012674447054  0.
0.018134400703022562 -0.018362038537225556  0.
0.015341465024579205 -0.017288221546523597  0.
0.012619040447639276 -0.015779696228978828  0.
0.009803264386559086 -0.015093474826806836  0.
0.007234541992137128 -0.014000963322328306  0.
0.004360803613138542 -0.013705749807347444  0.
0.001909245976833575 -0.01300682440303158  0.
-0.00105739349760377 -0.013113782711248188  0.
-0.0034233870092550273 -0.012795833515129317  0.
-0.0065207024806751305 -0.01332584395289404  0.
-0.008830798739027456 -0.013384760686253213  0.
-0.012102131261372249 -0.014370296398859483  0.
-0.014387517743053744 -0.014809055718617192  0.
-0.01788445964963465 -0.016296058999879022  0.
-0.02018249389059999 -0.01712286460466811  0.
-0.02396735440334365 -0.01917207562190625  0.
-0.02632849640624256 -0.020397420602605135  0.
-0.03047574316449531 -0.023083233795422375  0.
-0.03297375617412443 -0.024714958452838002  0.
-0.03756779262484758 -0.028116567347939565  0.
-0.040311777069150435 -0.03015220196779939  0.
-0.04543429091283985 -0.03432556877944003  0.
-0.04856862285681227 -0.036743651865278996  0.
-0.05425818928285001 -0.04166035339753933  0.
-0.057902683310332236 -0.04442274729219998  0.
-0.06406189175865853 -0.04990546008923926  0.
-0.06814640319540695 -0.05300378826492274  0.
-0.07444048975547678 -0.05878829171617704  0.
0.08277964842726268 -0.07215111098731761  0.
0.07794553972201744 -0.06852042991350528  0.
0.07238407715920014 -0.06300053822912109  0.
0.06779814423635973 -0.05965269928525849  0.
0.062476227716345555 -0.05448113758456301  0.
0.058281930029106276 -0.051382852859991786  0.
0.05337062331076793 -0.04673810866266188  0.
0.049546436574188384 -0.04392726163613487  0.
0.04508780357151873 -0.039889706602243856  0.
0.041543235162581515 -0.0374184472802468  0.
0.03750142431730269 -0.03398886498130969  0.
0.0341433382628802 -0.03189287022004274  0.
0.03045455401984245 -0.029034804598203033  0.
0.027207403465179837 -0.027331176179170687  0.
0.023806041435981695 -0.024998737455956745  0.
0.020611122227041274 -0.023693786640017228  0.
0.01743892736126858 -0.02184438302627252  0.
0.014249005436464658 -0.020941104673525616  0.
0.011256504853432573 -0.019540091137131444  0.
0.008030738142434785 -0.019043302851245062  0.
0.005175896872460211 -0.01806509332267918  0.
0.0018758507631273242 -0.01798476268742426  0.
-0.0008782571952240726 -0.01741248419767215  0.
-0.004291736876667036 -0.017766017833084374  0.
-0.006979586376649464 -0.017590621380824192  0.
-0.010548971164194612 -0.018404617459320694  0.
-0.013205661049393363 -0.018623664701447197  0.
-0.016978995660241896 -0.019935268374369267  0.
-0.01964412949451309 -0.02055129951158329  0.
-0.023676846780847104 -0.022408796134948904  0.
-0.0263997000769406 -0.02342693620069563  0.
-0.030755405990078342 -0.025888299538146465  0.
-0.03360177026042877 -0.02731265209760057  0.
-0.038350291038282504 -0.030438937117575112  0.
-0.04140961465296803 -0.03226749159025976  0.
-0.04661844847372725 -0.03610508014358598  0.
-0.050003799302391044 -0.03832428529301892  0.
-0.05571417631104794 -0.042868820278863365  0.
-0.05953199127647905 -0.04545382587557864  0.
-0.0657060034800901 -0.05060571425412796  0.
-0.06996491003727842 -0.05354300491815593  0.
-0.07641356047115734 -0.059115448879185566  0.
-0.08091069176020599 -0.062465839849656736  0.
0.09065740977116782 -0.07902259130016102  0.
0.08492127781618745 -0.0734619295608266  0.
0.0798618304672827 -0.06992833401743324  0.
0.07421581349288113 -0.06461434183966595  0.
0.06944802409023919 -0.06136063261355058  0.
0.06408891302718824 -0.05645457933972594  0.
0.05967205826547626 -0.05347690374446452  0.
0.054700285989742845 -0.04909596051111423  0.
0.05059406285289782 -0.04643117074595766  0.
0.04602336411253862 -0.04262191473122565  0.
0.04215081528268184 -0.04031065958714963  0.
0.03794557045559798 -0.03706916232263815  0.
0.034229951553748784 -0.03513984351745286  0.
0.030336354966986945 -0.03243844354277381  0.
0.026712299299460483 -0.0309073363544692  0.
0.023074694778728096 -0.028711904316034695  0.
0.019487934548789793 -0.02758852812047693  0.
0.01605505568127442 -0.02586708239345479  0.
0.012459020094700356 -0.0251594125970029  0.
0.009185191251796915 -0.023885719454992523  0.
0.005537511041851699 -0.02360407779780035  0.
0.0023816549648011326 -0.0227587408673399  0.
-0.0013588933000203466 -0.022918470088175807  0.
-0.004435215552370905 -0.022488811354056178  0.
-0.00831119848281844 -0.023112142274114036  0.
-0.011346326938614013 -0.023091433966601984  0.
-0.015403683998370138 -0.024208689408752627  0.
-0.018439014774173795 -0.02459487885288323  0.
-0.022728567992034734 -0.026244817192876004  0.
-0.025812507741587505 -0.027038650253017694  0.
-0.030390474008392596 -0.029267119197594414  0.
-0.03358322082966471 -0.030469471256794448  0.
-0.03850973134004857 -0.033324533711774205  0.
-0.04188779341421382 -0.03493288848685886  0.
-0.0472210228146817 -0.03845309917405538  0.
-0.05087722837473281 -0.0404579857182193  0.
-0.05665843898838672 -0.044650040559886944  0.
-0.0606855577115314 -0.04703469983307797  0.
-0.06690770101341295 -0.05184384546540157  0.
-0.07134750297782537 -0.05459584669859606  0.
-0.07790801267264241 -0.059897281610068694  0.
-0.08267245264964997 -0.06304455778361445  0.
-0.08934827897863049 -0.06870410805897163  0.
0.09795762111690294 -0.08434624937473965  0.
0.09249752484351977 -0.08059030567489583  0.
0.0865916862061206 -0.0751842286845632  0.
0.08131668685508159 -0.07175910431669741  0.
0.07558454190867236 -0.06667056034144102  0.
0.07060604075694898 -0.06353467628178555  0.
0.06517754458612295 -0.05888435583867966  0.
0.06050914556663568 -0.05604822979934161  0.
0.055440666352719624 -0.05191329790645725  0.
0.051035818968274756 -0.04941012962837904  0.
0.04632509502688693 -0.045818334230551795  0.
0.042116811764820974 -0.04368102733111355  0.
0.03772913069309209 -0.040627084123061145  0.
0.033651324041861885 -0.03887984882528186  0.
0.02953942782798116 -0.03634270878421089  0.
0.025533447413997677 -0.0350018976307221  0.
0.02164816866511256 -0.03295600222331981  0.
0.017662685412718496 -0.032033929415598204  0.
0.013957179836954563 -0.030455185666655792  0.
0.009945956069476018 -0.029963889899468753  0.
0.00637658454945593 -0.028832419198907215  0.
0.002295942335078073 -0.02878657340136644  0.
-0.0011786482401244082 -0.02808760564158268  0.
-0.005372103391919623 -0.028506560331537416  0.
-0.008792782972030648 -0.028230317494885377  0.
-0.013144024838083251 -0.029139358652891568  0.
-0.01655362568016927 -0.029280261882978068  0.
-0.02111053765767113 -0.03071096937424953  0.
-0.02455689545191141 -0.0312662741717707  0.
-0.02937075689218185 -0.033255477019864664  0.
-0.03291012479796434 -0.03422330980831331  0.
-0.03803457245351352 -0.03680952845886327  0.
-0.04173469860355458 -0.038186410384877044  0.
-0.04722166826141579 -0.04140188593734515  0.
-0.05116186354576337 -0.04318029640381862  0.
-0.057051900884678694 -0.04703655022259696  0.
-0.061313680958344 -0.049204473345896976  0.
-0.0676165078915988 -0.05367260368721846  0.
-0.07225430785237534 -0.056219817763215135  0.
-0.07891841229355598 -0.06121884372764564  0.
-0.0839084115153964 -0.06415767527654008  0.
-0.0907957079524151 -0.0695796413398827  0.
-0.09599735843469848 -0.07298222029132066  0.
0.10568327407338893 -0.09169023659667713  0.
0.09954380234812513 -0.08620613058314232  0.
0.09381899621602716 -0.08258376184366625  0.
0.08776866131086944 -0.0773629932025115  0.
0.08227162519049872 -0.0740613250288525  0.
0.07644162099679411 -0.06920435826241662  0.
0.0712279938791931 -0.0662060999015982  0.
0.06570144126876638 -0.06180092647195523  0.
0.0607603823453797 -0.0591229389028316  0.
0.05556585710900161 -0.05522115407229711  0.
0.05084952980267127 -0.052892817799474946  0.
0.04597528776799747 -0.04951147648427405  0.
0.04142387439825211 -0.047560639351947015  0.
0.036836008751051766 -0.04469454157565946  0.
0.03239049568099509 -0.04314304983839924  0.
0.02804595925119179 -0.04077617949691876  0.
0.023652203695084032 -0.03964090569122482  0.
0.019505885496368745 -0.03775402032988126  0.
0.01511450956961633 -0.03704961837775997  0.
0.01112213014756538 -0.03562448898266004  0.
0.006687046986772061 -0.03536614345702701  0.
0.0028056262566673908 -0.034387578079511594  0.
-0.0017178073268656901 -0.034593106227763064  0.
-0.005530844181520731 -0.03404960889000316  0.
-0.010187446732363183 -0.03474083162104764  0.
-0.013975971183458934 -0.03462438894594063  0.
-0.018811934576792387 -0.03582763225648163  0.
-0.02262335531558882 -0.03613286704543802  0.
-0.027686774135947157 -0.03787828127246477  0.
-0.03157454638572098 -0.03860108652806526  0.
-0.03691471857602752 -0.04092009499548685  0.
-0.040940518968277266 -0.042055894477997846  0.
-0.04660519835227978 -0.04497568876179366  0.
-0.05083904812794647 -0.04651773743129041  0.
-0.05686798528738899 -0.050051630882466946  0.
-0.06138269124059585 -0.05199058432146197  0.
-0.06779518597125767 -0.05612470192498259  0.
-0.07264894731957625 -0.0584521908944256  0.
-0.0794241271014491 -0.06313498169186417  0.
-0.08462797105642353 -0.06585584824949682  0.
-0.09168451034590036 -0.0710066405224429  0.
-0.09716876123182902 -0.07416305466061207  0.
-0.10436714136470353 -0.07971505581150508  0.
0.11305906362103814 -0.09770907692384988  0.
0.10692241706021498 -0.09386276729303546  0.
0.10058380252615472 -0.08853357716546735  0.
0.09461063849346094 -0.08504883114296888  0.
0.08842365013451149 -0.08003047961604219  0.
0.08269234483418575 -0.07686735099337835  0.
0.07674852218794809 -0.0722415139440825  0.
0.07127986104976582 -0.06939718719317142  0.
0.06562992541120333 -0.06522762961963194  0.
0.06040000511111966 -0.06272134514888063  0.
0.055054588186706506 -0.059043308852583506  0.
0.050016104037949725 -0.0569012523799709  0.
0.04495752912771102 -0.05372562673811546  0.
0.04005576184008664 -0.05197236973380599  0.
0.03525056497572998 -0.04929459962334824  0.
0.030431311673795033 -0.04795069920075555  0.
0.025839004653694306 -0.045758599256079314  0.
0.021051188695875463 -0.04484156450702607  0.
0.01662898213786791 -0.04312055017905129  0.
0.011824613579569055 -0.04264685703067355  0.
0.007529398526119306 -0.04138298956791587  0.
0.0026625297709955906 -0.041370014509446364  0.
-0.0015489997104944162 -0.04055144765620895  0.
-0.006523518069713343 -0.04101887354027323  0.
-0.010695750431396634 -0.040636269832904574  0.
-0.015823296515948652 -0.04160674655148097  0.
-0.02000321613337604 -0.041652964626809647  0.
-0.02532991179493348 -0.04315177494611481  0.
-0.029568917758611687 -0.043621035485085606  0.
-0.035141247715328026 -0.0456743374036695  0.
-0.03949667083511696 -0.04656104393409575  0.
-0.04535962592778127 -0.04919204051341963  0.
-0.04989493634251061 -0.05048961797734597  0.
-0.05608762943272019 -0.05371195804432128  0.
-0.06086900971489244 -0.05541249346376143  0.
-0.06741648700201089 -0.059221119948702015  0.
-0.07250218448259352 -0.06131748929128456  0.
-0.0794024347702821 -0.0656802352615306  0.
-0.0848220074358671 -0.06817353284408824  0.
-0.09203101738092247 -0.07303251885546344  0.
-0.09775987732712657 -0.07594750546312085  0.
-0.10518681474964227 -0.08124196034719057  0.
-0.11113769633287827 -0.08464818188465151  0.
0.12062560991249192 -0.10563137945764722  0.
0.11400499327276022 -0.10019787638402985  0.
0.10758855327297465 -0.0965094564767472  0.
0.10107323071278825 -0.09135659039968223  0.
0.09485444017557428 -0.08801745940485625  0.
0.08852862197901762 -0.08320985664293272  0.
0.08254959891804191 -0.0801990478344518  0.
0.0764745885805702 -0.0758010104612622  0.
0.07073458733268556 -0.07312407452961246  0.
0.06493866596002534 -0.06918206610533746  0.
0.059406747949193324 -0.06685878229275494  0.
0.05388859779911909 -0.06339747294457536  0.
0.04851858339995121 -0.06145159580163855  0.
0.04325650585798076 -0.05847823381348818  0.
0.03799730530510542 -0.05693219102689029  0.
0.03295789315880287 -0.054443024823294904  0.
0.02775866172547555 -0.0533166555836739  0.
0.02290276693557798 -0.05130237754347821  0.
0.01771459078495674 -0.050613720040960215  0.
0.013000551379375946 -0.04906315889062044  0.
0.007776512108619328 -0.048829894014939  0.
0.003161392439107796 -0.04773217232961837  0.