<?xml version="1.0"?>
<VTKFile type="UnstructuredGrid" version="0.1" byte_order="LittleEndian" compressor="vtkZLibDataCompressor">
<UnstructuredGrid>
<Piece NumberOfPoints="1105" NumberOfCells="1024">
<PointData>
<DataArray type="Float64" Name="displacement" NumberOfComponents="3" format="ascii" >
0.0 0.0  0.
-0.0014559177447028106 -0.0018624720323755393  0.
-0.0028895979535890383 -0.0022749413263400946  0.
-0.0043036729657597245 -0.0029290754295815463  0.
-0.005708773903837884 -0.0037165825367219416  0.
-0.0070924679255044715 -0.004674522860126069  0.
-0.008453826977164836 -0.005799543348685961  0.
-0.009792155548725307 -0.007091145668657232  0.
-0.011107351089961375 -0.008547131925423423  0.
-0.01239938027644404 -0.010165107786555508  0.
-0.013668244184440098 -0.011942474652826354  0.
-0.01491394534062003 -0.013876539437806375  0.
-0.016136482260482286 -0.015964546613377886  0.
-0.017335848296573485 -0.01820369958348403  0.
-0.018512032797178557 -0.020591172430053976  0.
-0.01966502263855852 -0.023124117588018356  0.
-0.020794803629170265 -0.02579967110438203  0.
-0.021901361595179965 -0.028614956480677876  0.
-0.022984683133313057 -0.03156708758554488  0.
-0.024044756075047302 -0.03465317091477558  0.
-0.02508156972409171 -0.03787030736398508  0.
-0.026095114927883953 -0.04121559362213674  0.
-0.02708538403555641 -0.04468612326285049  0.
-0.028052370784476678 -0.04827898759218818  0.
-0.028996070147403713 -0.05199127629992628  0.
-0.029916478163473183 -0.05582007795303103  0.
-0.03081359176894937 -0.05976248036357469  0.
-0.03168740863795436 -0.06381557085793992  0.
-0.03253792703905961 -0.0679764364695084  0.
-0.03336514571049204 -0.07224216407297904  0.
-0.034169063754543705 -0.0766098404749416  0.
-0.034949680550370794 -0.08107655247231807  0.
-0.0357069956835377 -0.08563938688773394  0.
-0.03644100889024836 -0.0902954305887695  0.
-0.03715172001408113 -0.09504177049632546  0.
-0.03783912897310807 -0.09987549358596452  0.
-0.038503235735456706 -0.1047936868850242  0.
-0.03914404030161115 -0.10979343746748409  0.
-0.03976154269200456 -0.11487183244797852  0.
-0.04035574293870252 -0.12002595897593375  0.
-0.04092664108018799 -0.12525290423055893  0.
-0.04147423715841024 -0.13054975541729683  0.
-0.041998531217318176 -0.13591359976635697  0.
-0.04249952330200771 -0.14134152453405951  0.
-0.0429772134572936 -0.14683061700793631  0.
-0.04343160172382934 -0.1523779645167735  0.
-0.04386268812864356 -0.15798065444698445  0.
-0.044270472664823236 -0.16363577426662373  0.
-0.04465495525161169 -0.16934041155762533  0.
-0.04501613566078259 -0.17509165405471847  0.
-0.04535401338697028 -0.18088658968467697  0.
-0.0456685874276029 -0.18672230658992736  0.
-0.04595985592076138 -0.19259589310252054  0.
-0.046227815564639486 -0.19850443760223474  0.
-0.046472460706682824 -0.20444502813590332  0.
-0.046693781936938024 -0.21041475157784476  0.
-0.04689176392789142 -0.21641069192778523  0.
-0.0470663820992237 -0.222429927045943  0.
-0.04721759724559535 -0.22846952220102457  0.
-0.0473453466111167 -0.23452651834260418  0.
-0.04744952562092291 -0.2405979011721857  0.
-0.04752995660937949 -0.2466805615489435  0.
-0.04758627586228886 -0.2527709416268935  0.
-0.047618016863553755 -0.2588652366925376  0.
-0.047625845361314235 -0.26494776365041817  0.
0.000117919921875 -0.001378125  0.
-0.0009663537048962939 -0.001255263922685776  0.
-0.002340432501518191 -0.0018939391937612563  0.
-0.00361808023459234 -0.0025227333636380135  0.
-0.004860448988322071 -0.003323739695341261  0.
-0.0060769538796929395 -0.004287668124208195  0.
-0.007271057463152925 -0.005419587799440619  0.
-0.008443827706472786 -0.00671779076024836  0.
-0.009595732090319319 -0.00818036496436293  0.
-0.010727007235481995 -0.009804895065860955  0.
-0.011837785821795933 -0.01158880162632577  0.
-0.012928145062807504 -0.013529397470336582  0.
-0.013998129499343913 -0.015623932049228927  0.
-0.015047763414167137 -0.017869611778028698  0.
-0.016077058270863753 -0.02026361264289628  0.
-0.017086017474381578 -0.02280308816206337  0.
-0.01807463952231533 -0.025485174907514764  0.
-0.019042920118412136 -0.028306996529262503  0.
-0.019990853583285926 -0.03126566680317909  0.
-0.02091843377682205 -0.03435829198860978  0.
-0.021825654678106567 -0.03758197267022314  0.
-0.022712510726092254 -0.040933805199005906  0.
-0.023578996995609267 -0.044410882814713434  0.
-0.02442510926304387 -0.048010296512736673  0.
-0.02525084400109605 -0.05172913570577325  0.
-0.026056198330856782 -0.05556448872165085  0.
-0.026841169951030575 -0.059513443171560036  0.
-0.027605757057813065 -0.06357308621705302  0.
-0.02834995826424802 -0.0677405047591041  0.
-0.029073772524473216 -0.07201278556815019  0.
-0.02977719906583478 -0.0763870153702592  0.
-0.03046023733017525 -0.08086028090136803  0.
-0.031122886924495517 -0.08542966893884156  0.
-0.031765147580504555 -0.09009226631739653  0.
-0.03238701912218555 -0.09484515993464566  0.
-0.03298850144033146 -0.09968543675010742  0.
-0.03356959447296452 -0.10461018378043034  0.
-0.034130298190600546 -0.10961648809275976  0.
-0.03467061258541152 -0.11470143679757931  0.
-0.035190537663445216 -0.11986211704194805  0.
-0.035690073439155506 -0.12509561600381935  0.
-0.036169219931557625 -0.13039902088801605  0.
-0.03662797716131582 -0.13576941892447944  0.
-0.037066345147967826 -0.141203897369556  0.
-0.03748432390623025 -0.14669954351135872  0.
-0.0378819134398405 -0.15225344468057936  0.
-0.038259113730569276 -0.15786268826846483  0.
-0.03861592471874171 -0.16352436175382587  0.
-0.03895234626966597 -0.1692355527405198  0.
-0.03926837811760414 -0.17499334900518893  0.
-0.03956401977518668 -0.18079483855082576  0.
-0.03983927039148331 -0.1866371096528881  0.
-0.040094128536708885 -0.19251725086753463  0.
-0.040328591887034936 -0.1984323509400821  0.
-0.04054265678236188 -0.20437949849598805  0.
-0.04073631764052405 -0.21035578129651908  0.
-0.04090956625121673 -0.2163582846672804  0.
-0.04106239108838692 -0.22238408832989304  0.
-0.04119477710972848 -0.22843026030299118  0.
-0.04130670753268374 -0.23449384374968332  0.
-0.041398172223550696 -0.2405718330897822  0.
-0.04146920102559523 -0.2466610863949585  0.
-0.04151996004598507 -0.2527582507930956  0.
-0.04155116285497423 -0.2588583864760589  0.
-0.04156067107091982 -0.26495914832914047  0.
0.000188671875 -0.0010125  0.
-0.0008862619817578401 -0.0011055963936234567  0.
-0.001912161966834651 -0.0015233054028650742  0.
-0.003000872688468519 -0.002178369744068625  0.
-0.004066723026635242 -0.002981139701401441  0.
-0.005111809544376765 -0.003952148905354709  0.
-0.006136976287815071 -0.005089938286579208  0.
-0.007143351938881734 -0.006394016466791988  0.
-0.00813150192524005 -0.007862349650770142  0.
-0.009101749154884134 -0.009492597287824825  0.
-0.010054278341770055 -0.011282194645984855  0.
-0.010989199372649621 -0.01322846761759854  0.
-0.011906578451691022 -0.01532867232418115  0.
-0.012806455398511139 -0.01758001924524916  0.
-0.013688853613601082 -0.019979686686892262  0.
-0.014553786134498805 -0.02252482946270039  0.
-0.015401259452726676 -0.025212584801785568  0.
-0.016231275983852073 -0.02804007662059474  0.
-0.017043835688623596 -0.031004418726651727  0.
-0.017838937139612803 -0.03410271727714664  0.
-0.01861657821654818 -0.03733207268601574  0.
-0.01937675654957002 -0.04068958110652196  0.
-0.020119469790771286 -0.044172335579343094  0.
-0.020844715769508984 -0.047777426914300605  0.
-0.021552492570306534 -0.05150194435968713  0.
-0.022242798560606895 -0.05534297610304356  0.
-0.022915632387428674 -0.059297609639401457  0.
-0.023570992956071787 -0.06336293203657113  0.
-0.024208879399757556 -0.06753603012160592  0.
-0.024829291046023532 -0.07181399060791066  0.
-0.025432227383514163 -0.076193900178491  0.
-0.026017688031285 -0.0806728455374848  0.
-0.026585672711698167 -0.08524791343933416  0.
-0.027136181227300046 -0.08991619070267899  0.
-0.027669213441639574 -0.09467476421422265  0.
-0.028184769263731736 -0.09952072092639025  0.
-0.028682848635739062 -0.10445114785148674  0.
-0.029163451523393155 -0.10946313205423706  0.
-0.029626577908676247 -0.11455376064399386  0.
-0.0300722277843086 -0.1197201207674881  0.
-0.03050040114962283 -0.12495929960275895  0.
-0.030911098007441355 -0.13026838435479182  0.
-0.03130431836159618 -0.13564446225342783  0.
-0.03168006221473838 -0.14108462055424034  0.
-0.03203832956606844 -0.14658594654334073  0.
-0.032379120408586606 -0.15214552754738284  0.
-0.03270243472541419 -0.15776045095035987  0.
-0.03300827248470836 -0.16342780421890757  0.
-0.03329663363274757 -0.16914467493740107  0.
-0.03356751808504943 -0.17490815085246475  0.
-0.03382092571621585 -0.1807153199223236  0.
-0.034056856351254716 -0.18656327035752826  0.
-0.0342753097658346 -0.1924490906220882  0.
-0.03447628571335382 -0.1983698693314301  0.
-0.034659784019410285 -0.20432269492389135  0.
-0.034825804833205604 -0.2103046548754861  0.
-0.034974349231067486 -0.21631283402255946  0.
-0.035105420589441286 -0.22234431119867998  0.
-0.0352190276301533 -0.22839615242893035  0.
-0.03531519082297631 -0.2344653979776596  0.
-0.035393955649537234 -0.24054903162187347  0.
-0.035455406818679265 -0.24664393797415105  0.
-0.03549966955089718 -0.25274671476465693  0.
-0.0355262307884065 -0.25885421309789425  0.
-0.03553423557096405 -0.26496547440124313  0.
0.000218994140625 -0.0007031249999999999  0.
-0.0006847797303099929 -0.0008750118813253343  0.
-0.0015671108802374812 -0.0012747777374114509  0.
-0.002443840554989806 -0.0018919250716686125  0.
-0.0033243094595507934 -0.0026960136859249203  0.
-0.00419247722354485 -0.003669462224739308  0.
-0.005046182373795879 -0.004811652886451413  0.
-0.005884834813357433 -0.006120332065576605  0.
-0.006708496679573595 -0.0075933918252225705  0.
-0.007517285462431862 -0.009228395244159915  0.
-0.008311303885797119 -0.011022763528988037  0.
-0.009090625208310303 -0.012973815357987625  0.
-0.009855299191225474 -0.015078804855835492  0.
-0.010605358765151441 -0.01733494139869012  0.
-0.011340825368223815 -0.019739402527462462  0.
-0.012061712706076285 -0.022289342362943502  0.
-0.012768029328588558 -0.024981897490021207  0.
-0.013459780378061715 -0.02781419123842439  0.
-0.014136968772891535 -0.03078333690104039  0.
-0.01479959600719063 -0.03388644020007975  0.
-0.015447662688210552 -0.03712060119453711  0.
-0.01608116889410215 -0.04048291575768378  0.
-0.016700114408490955 -0.043970476716725194  0.
-0.017304498870874624 -0.04758037472451898  0.
-0.017894321869946744 -0.051309698918603805  0.
-0.018469582998713284 -0.05515553741224772  0.
-0.01903028188449718 -0.059114977654031765  0.
-0.019576418202859026 -0.06318510668578313  0.
-0.02010799168158807 -0.06736301132303518  0.
-0.02062500209889502 -0.0716457782774077  0.
-0.02112744927852162 -0.07603049423626056  0.
-0.021615333083501408 -0.08051424591158773  0.
-0.022088653409634732 -0.08509412006733157  0.
-0.02254741017928977 -0.08976720353202837  0.
-0.022991603335844064 -0.09453058320189126  0.
-0.02342123283889089 -0.09938134603801911  0.
-0.023836298660218663 -0.10431657906034195  0.
-0.02423680078050566 -0.10933336934009329  0.
-0.024622739186642054 -0.11442880399202383  0.
-0.024994113869588535 -0.11959997016715945  0.
-0.02535092482270195 -0.12484395504665997  0.
-0.025693172040512767 -0.13015784583720266  0.
-0.02602085551803424 -0.13553872976830036  0.
-0.02633397525085182 -0.14098369409202907  0.
-0.02663253123651981 -0.14648982608578265  0.
-0.026916523478249903 -0.1520542130588349  0.
-0.027185951992606476 -0.15767394236360388  0.
-0.027440816824062707 -0.1633461014123867  0.
-0.02768111807101045 -0.16906777769965764  0.
-0.027906855930409934 -0.17483605882813336  0.
-0.028118030772071343 -0.18064803253258013  0.
-0.02831464325908995 -0.18650078668669348  0.
-0.028496694539037838 -0.1923914092616708  0.
-0.028664186542560442 -0.19831698817391394  0.
-0.028817122444464712 -0.20427461090263335  0.
-0.02895550737082899 -0.21026136365527423  0.
-0.02907934947414594 -0.21627432968254146  0.
-0.02918866153019322 -0.22231058600721432  0.
-0.02928346306582151 -0.22836719745040912  0.
-0.029363782304384193 -0.23444120556534617  0.
-0.02942965218098626 -0.24052961411852217  0.
-0.02948108568938085 -0.24662936625677695  0.
-0.02951793073097887 -0.252737454400566  0.
-0.02953981916434273 -0.25885133169294305  0.
-0.029546506709763627 -0.26496927734318987  0.
0.000215625 -0.00045  0.
-0.0005132975762131876 -0.0006567955707572359  0.
-0.0012225780719261638 -0.0010638549519237917  0.
-0.001923857266266128 -0.0016715214813862892  0.
-0.002620191051475501 -0.002467736212155316  0.
-0.00331068339429654 -0.003441291447544071  0.
-0.00399157281428812 -0.0045855106272361884  0.
-0.004661566610978544 -0.005897275795606561  0.
-0.0053201202152284915 -0.007373814361258191  0.
-0.00596705020036761 -0.009012493890147142  0.
-0.006602296814696693 -0.0108106382188618  0.
-0.007225846711053691 -0.012765523711664915  0.
-0.0078377019483645 -0.014874382301666933  0.
-0.008437868958122268 -0.01713441102997206  0.
-0.009026354589316964 -0.019542779861730496  0.
-0.009603164882424794 -0.022096637954310057  0.
-0.0101683048237585 -0.024793118478267675  0.
-0.010721778428001677 -0.027629342351325123  0.
-0.011263588902795009 -0.030602421145312593  0.
-0.01179373881022301 -0.033709459359124214  0.
-0.012312230201083737 -0.0369475561956563  0.
-0.012819064719979423 -0.040313806945234794  0.
-0.013314243686064892 -0.04380530405450777  0.
-0.013797768155334171 -0.04741913794373211  0.
-0.01426963896945371 -0.05115239762367463  0.
-0.01472985679487034 -0.05500217115422734  0.
-0.0151784221547751 -0.058965545979361746  0.
-0.01561533545563736 -0.06303960916673093  0.
-0.01604059700943078 -0.06722144757484012  0.
-0.01645420705229683 -0.07150814796610729  0.
-0.016856165760168525 -0.07589679708025912  0.
-0.017246473261753336 -0.08038448167927179  0.
-0.017625129649206657 -0.08496828857241417  0.
-0.017992134986791777 -0.08964530462781096  0.
-0.018347489317797033 -0.09441261677524478  0.
-0.018691192669962442 -0.09926731200359457  0.
-0.01902324505964858 -0.10420647735529681  0.
-0.01934364649496326 -0.10922719991945903  0.
-0.019652396978051684 -0.11432656682470488  0.
-0.019949496506758826 -0.11950166523244145  0.
-0.020234945075906407 -0.12474958233097166  0.
-0.020508742678508402 -0.13006740533071037  0.
-0.02077088930741517 -0.13545222146066443  0.
-0.02102138495817287 -0.14090111796627267  0.
-0.021260229634388426 -0.14641118210866555  0.
-0.02148742335769732 -0.15197950116530112  0.
-0.021702966185685325 -0.15760316243173753  0.
-0.02190685824297922 -0.16327925322381723  0.
-0.0220990997733856 -0.16900486087856323  0.
-0.022279691224582374 -0.17477707275014542  0.
-0.02244863338147775 -0.18059297619360914  0.
-0.02260592756964682 -0.18644965852230336  0.
-0.022751575955173832 -0.19234420691266055  0.
-0.022885581969116334 -0.19827370820822135  0.
-0.023007950877526516 -0.20423524853687455  0.
-0.023118690486839597 -0.21022591259412376  0.
-0.02321781188445673 -0.2162427823522017  0.
-0.023305329864760728 -0.2222829348880697  0.
-0.023381262066785622 -0.22834343903538287  0.
-0.023445624023238448 -0.23442135204588818  0.
-0.023498414439320645 -0.2405137200434917  0.
-0.023539574805265813 -0.2466176110104061  0.
-0.02356895491806192 -0.25273022180898574  0.
-0.023586359339873884 -0.25884903351174443  0.
-0.023591728802980765 -0.26497181483993004  0.
0.000185302734375 -0.000253125  0.
-0.0003628749869230078 -0.00047891506032307266  0.
-0.0008972768259426604 -0.0008946637825321647  0.
-0.0014226337049900852 -0.0015017674312730234  0.
-0.0019422479314895357 -0.0022950064420087057  0.
-0.002456661620682763 -0.0032669311689823683  0.
-0.0029650618644739236 -0.00441168257417682  0.
-0.003466208896230121 -0.00572504354542513  0.
-0.0039594001325100716 -0.007203799163141619  0.
-0.004444246300721222 -0.00884502882254766  0.
-0.004920545900466367 -0.01064591662623048  0.
-0.005388193596247637 -0.012603661650613515  0.
-0.005847134259454324 -0.014715452798348932  0.
-0.00629733909051805 -0.01697846144839988  0.
-0.006738793481641932 -0.019389841527449648  0.
-0.007171490654523216 -0.021946731703703773  0.
-0.00759542822559775 -0.0246462580673706  0.
-0.008010606279108696 -0.02748553666196094  0.
-0.008417026245805556 -0.030461675679109006  0.
-0.008814690230235398 -0.03357177728264983  0.
-0.009203600599959385 -0.03681293908624046  0.
-0.00958375973503999 -0.04018225532750645  0.
-0.009955169879631697 -0.04367681778553375  0.
-0.010317833060443305 -0.04729371648636059  0.
-0.01067175104947682 -0.051030040236644134  0.
-0.011016925355826063 -0.05488287702041961  0.
-0.011353357235935807 -0.0588493142885458  0.
-0.011681047714822422 -0.0629264391653985  0.
-0.011999997612962833 -0.06711133859281544  0.
-0.012310207575188168 -0.07140109942729793  0.
-0.012611678099140239 -0.07579280850305702  0.
-0.012904409561763393 -0.08028355267063893  0.
-0.013188402242976465 -0.08487041881852606  0.
-0.013463656346148097 -0.0895504938832348  0.
-0.013730172015327608 -0.09432086485195235  0.
-0.013987949349395073 -0.09917861876060488  0.
-0.014236988413420373 -0.10412084268937863  0.
-0.01447728924759069 -0.10914462375705562  0.
-0.01470885187410063 -0.11424704911504495  0.
-0.014931676302426833 -0.11942520594162954  0.
-0.015145762533455143 -0.12467618143668442  0.
-0.015351110563024276 -0.12999706281690943  0.
-0.015547720385640828 -0.1353849373114309  0.
-0.015735591999464248 -0.1408368921574168  0.
-0.01591472541423791 -0.1463500145950882  0.
-0.01608512066476214 -0.15192139186113046  0.
-0.016246777833899703 -0.15754811117894907  0.
-0.01639969709111974 -0.1632272597434109  0.
-0.016543878755332732 -0.16895592469654586  0.
-0.016679323394223667 -0.17473119308907076  0.
-0.01680603197606433 -0.18055015182041625  0.
-0.016924006092875737 -0.18640988754709334  0.
-0.017033248272918383 -0.19230748654570273  0.
-0.017133762389527477 -0.19824003451293984  0.
-0.01722555413942351 -0.2042046162824685  0.
-0.017308631481861562 -0.21019831544405762  0.
-0.017383004752141527 -0.21621821389437665  0.
-0.017448685812456486 -0.22226139150257712  0.
-0.017505684934542957 -0.2283249266878094  0.
-0.017554003293960552 -0.23440590010764584  0.
-0.017593618042645445 -0.24050140872765224  0.
-0.01762446572948679 -0.24660860128270937  0.
-0.017646443532411713 -0.2527247359956951  0.
-0.01765945642983111 -0.2588472216178871  0.
-0.017663497068865403 -0.2649735636470113  0.
0.000134765625 -0.0001125  0.
-0.00023137712260898143 -0.0003494028715413952  0.
-0.0005885972971977926 -0.0007717711276378081  0.
-0.0009374539266243008 -0.0013816008893805928  0.
-0.001281294236040155 -0.002174326381343646  0.
-0.0016217145141954967 -0.003145203646317506  0.
-0.0019585670975797863 -0.0042896063375751185  0.
-0.002291262344121062 -0.005603468109023973  0.
-0.0026191940536002905 -0.0070833108083739075  0.
-0.0029419433937339185 -0.008726016871303088  0.
-0.003259241947508322 -0.010528629746523428  0.
-0.003570925097850959 -0.012488261080825177  0.
-0.003876893020053834 -0.014602044455725986  0.
-0.004177085745203672 -0.016867115912280684  0.
-0.004471467779275966 -0.019280606168617924  0.
-0.00476001878200034 -0.021839638290760743  0.
-0.005042727852617 -0.02454132768044483  0.
-0.005319589964754457 -0.027382782979161413  0.
-0.0055906036982100015 -0.030361107239728808  0.
-0.005855769773534445 -0.033473399080472435  0.
-0.006115090098019803 -0.03671675370609905  0.
-0.006368567146562905 -0.04008826375961893  0.
-0.006616203566655299 -0.0435850200067399  0.
-0.006858001935373023 -0.04720411187019079  0.
-0.007093964619739053 -0.05094262783700571  0.
-0.007324093706770864 -0.05479765576223075  0.
-0.007548390979475069 -0.058766283090535436  0.
-0.007766857921963204 -0.06284559701426301  0.
-0.007979495741822048 -0.06703268458329366  0.
-0.008186305401500067 -0.0713246327791048  0.
-0.00838728765314399 -0.0757185285627713  0.
-0.008582443073279879 -0.0802114589044142  0.
-0.008771772095151462 -0.08480051079977156  0.
-0.008955275037532724 -0.08948277127810199  0.
-0.00913295212952031 -0.09425532740447781  0.
-0.009304803531264914 -0.09911526627864582  0.
-0.00947082935088256 -0.10405967503195493  0.
-0.00963102965794979 -0.10908564082334722  0.
-0.009785404494074485 -0.1141902508350253  0.
-0.009933953881082957 -0.11937059226811003  0.
-0.010076677827409446 -0.12462375233835264  0.
-0.010213576333354525 -0.12994681827172766  0.
-0.010344649396032822 -0.1353368772994629  0.
-0.01046989701511646 -0.14079101665172286  0.
-0.010589319200963893 -0.1463063235487023  0.
-0.010702915987494337 -0.15187988518724818  0.
-0.010810687453326561 -0.15750878872028745  0.
-0.010912633756339126 -0.16319012122527746  0.
-0.011008755188964523 -0.16892096965673226  0.
-0.01109905226405121 -0.17469842077687228  0.
-0.011183525843426766 -0.18051956105833356  0.
-0.011262177321831966 -0.18638147655503826  0.
-0.011335008874210921 -0.19228125274457641  0.
-0.011402023757328057 -0.1982159743630308  0.
-0.01146322661388304 -0.20418272529080375  0.
-0.011518623635433689 -0.21017858862510447  0.
-0.011568222267305143 -0.21620064722615473  0.
-0.011612029854910517 -0.22224598533577974  0.
-0.011650050322180014 -0.22831169243271207  0.
-0.01168227792533811 -0.23439487164552888  0.
-0.011708689151410488 -0.24049265584759816  0.
-0.011729238110716814 -0.2466022323233577  0.
-0.011743865655969079 -0.2527208671596868  0.
-0.011752527392515387 -0.2588459059461466  0.
-0.011755227309814842 -0.2649747258010715  0.
7.075195312499999e-05 -2.8125e-05  0.
-0.00011904917775822537 -0.0002704448915363445  0.
-0.0002928369584113546 -0.0006998208327681686  0.
-0.0004623982521008128 -0.0013121545481133339  0.
-0.0006308894033200185 -0.0021047691447995216  0.
-0.0007983056968438584 -0.0030748621572897735  0.
-0.0009645915633738387 -0.004218560367525741  0.
-0.0011294193431430712 -0.005532142817128394  0.
-0.0012924020135100024 -0.007012147147788547  0.
-0.0014531958466283649 -0.008655362052710404  0.
-0.001611543979800182 -0.010458737330457634  0.
-0.0017672672082778992 -0.012419309705379626  0.
-0.0019202455756015748 -0.014534158662437891  0.
-0.0020704008447765512 -0.01680038205370701  0.
-0.0022176832457804 -0.019215083814351393  0.
-0.0023620621168441132 -0.021775368164259103  0.
-0.002503519490533147 -0.02447833719979074  0.
-0.002642045733181223 -0.02732109016427423  0.
-0.0027776365833485847 -0.030300723501640085  0.
-0.0029102911405299637 -0.03341433123079138  0.
-0.003040010503953304 -0.03665900541075379  0.
-0.003166796860312128 -0.04003183658885997  0.
-0.0032906528837435443 -0.043529914187815356  0.
-0.003411581353427797 -0.047150326819573075  0.
-0.0035295849221539436 -0.05089016252917382  0.
-0.003644665988306942 -0.054746508978021656  0.
-0.003756826637170542 -0.058716453577796916  0.
-0.003866068627125814 -0.06279708358573131  0.
-0.003972393403421322 -0.06698548617055779  0.
-0.004075802127432164 -0.0712787484567715  0.
-0.00417629571319202 -0.07567395755322787  0.
-0.004273874865812719 -0.08016820057069249  0.
-0.004368540118446884 -0.08475856463179769  0.
-0.00446029186589048 -0.08944213687593286  0.
-0.004549130393911305 -0.09421600446088108  0.
-0.004635055904043525 -0.0990772545624684  0.
-0.004718068533999526 -0.1040229743730822  0.
-0.004798168374090286 -0.1090502510995997  0.
-0.004875355480172261 -0.11415617196102812  0.
-0.0049496298836965965 -0.11933782418594212  0.
-0.005020991599462959 -0.12459229500960613  0.
-0.005089440631709773 -0.12991667167042376  0.
-0.005154976979236066 -0.13530804140505687  0.
-0.005217600640385546 -0.1407634914411239  0.
-0.005277311618972234 -0.1462801089858023  0.
-0.005334109932638849 -0.15185498120784482  0.
-0.005387995625768485 -0.15748519520949414  0.
-0.0054389687899607094 -0.16316783798358928  0.
-0.005487029596231329 -0.16889999635005157  0.
-0.0055321783443726775 -0.17467875686556023  0.
-0.005574415535886611 -0.1805012057018958  0.
-0.005613741976520432 -0.1863644284948397  0.
-0.005650158910382697 -0.19226551018167287  0.
-0.005683668175299724 -0.19820153488020328  0.
-0.005714272340162552 -0.2041695859311891  0.
-0.005741974726685201 -0.2101667463523669  0.
-0.0057667791162418275 -0.2161901001688737  0.
-0.005788688806862203 -0.2222367354079851  0.
-0.005807704601845816 -0.22830374994987707  0.
-0.005823821662684277 -0.23438826155049627  0.
-0.005837026274322065 -0.24048742235152398  0.
-0.0058472954219393435 -0.24659843478764892  0.
-0.005854602623672085 -0.25271856016687505  0.
-0.005858930303313489 -0.25884510740311334  0.
-0.005860282012469208 -0.2649753950196794  0.
-7.075195312499999e-05 -2.8125e-05  0.
-1.514739520420159e-05 -0.000250852592840526  0.
1.732410383774104e-06 -0.0006821819459599597  0.
9.45731031563891e-06 -0.00129369474743021  0.
1.545630782634202e-05 -0.0020860226339969473  0.
2.0214090408475167e-05 -0.0030552095834829192  0.
2.379500579554705e-05 -0.004197908808791277  0.
2.6296506459433213e-05 -0.005510633076543697  0.
2.79148504098243e-05 -0.006990034158164043  0.
2.8871325536180872e-05 -0.008632902832326842  0.
2.9364658964461023e-05 -0.010436148319636669  0.
2.9551808597664377e-05 -0.012396759391816848  0.
2.954823716832132e-05 -0.014511772765965204  0.
2.9434865430447334e-05 -0.01677825205195219  0.
2.9266243569407848e-05 -0.019193275002745248  0.
2.9077712899642757e-05 -0.02175392629866227  0.
2.8891054703473537e-05 -0.024457293666526027  0.
2.871872206444227e-05 -0.02730046591065788  0.
2.8566922141091223e-05 -0.030280531990205098  0.
2.8437818602331942e-05 -0.03339458064352713  0.
2.8331078982450453e-05 -0.0366397002813888  0.
2.8244941422119062e-05 -0.04001297899984366  0.
2.8176932532744007e-05 -0.04351150463668607  0.
2.8124334785507795e-05 -0.04713236483536823  0.
2.8084476553386228e-05 -0.0508726471013569  0.
2.805489888554695e-05 -0.054729438846393925  0.
2.8033438712388257e-05 -0.058699827420881576  0.
2.801825730179044e-05 -0.06278090013640904  0.
2.800783457146226e-05 -0.0669697442808035  0.
2.80009436913041e-05 -0.07126344712784022  0.
2.7996615820581995e-05 -0.07565909594331059  0.
2.7994101459407892e-05 -0.0801537779886986  0.
2.7992832469563768e-05 -0.08474458052334076  0.
2.7992387112347622e-05 -0.08942859080565796  0.
2.7992459282004422e-05 -0.09420289609383688  0.
2.799283234185108e-05 -0.09906458364619077  0.
2.7993357485986296e-05 -0.10401074072132536  0.
2.7993936268991896e-05 -0.10903845457814978  0.
2.7994506804751455e-05 -0.11414481247569544  0.
2.7995033086190585e-05 -0.11932690167261596  0.
2.7995496886903634e-05 -0.12458180942610521  0.
2.7995891747418172e-05 -0.12990662298977956  0.
2.7996218608803613e-05 -0.1352984296097747  0.
2.7996482721400017e-05 -0.1407543165178633  0.
2.7996691520085905e-05 -0.14627137091977518  0.
2.7996853218095572e-05 -0.1518466799760347  0.
2.7996975922241055e-05 -0.1574773307715409  0.
2.7997067117184094e-05 -0.16316041026887568  0.
2.7997133403823693e-05 -0.16889300523927453  0.
2.799718040577843e-05 -0.17467220216504853  0.
2.799721278158367e-05 -0.18049508710964002  0.
2.7997234298600727e-05 -0.1863587455595468  0.
2.7997247938219753e-05 -0.19226026226194723  0.
2.799725601213525e-05 -0.1981967211233792  0.
2.799726027725244e-05 -0.20416520531524254  0.
2.7997262041436008e-05 -0.21016279787623504  0.
2.799726225648658e-05 -0.21618658333461138  0.
2.7997261597241502e-05 -0.22223365119478924  0.
2.799726052564523e-05 -0.22830110239794993  0.
2.7997259342560397e-05 -0.23438605964541748  0.
2.799725822675076e-05 -0.24048568096791512  0.
2.7997257262321465e-05 -0.24659717259819305  0.
2.799725645426206e-05 -0.2527177931112795  0.
2.7997255731652712e-05 -0.25884483970325034  0.
2.7997254934741343e-05 -0.2649756139528246  0.
0.0 0.0  0.
0.0001275302033096401 -0.0002871979730001119  0.
0.0003032572441969782 -0.0007130509962120921  0.
0.0004842445604747474 -0.0013260383137318002  0.
0.0006636247448968431 -0.0021177286729608035  0.
0.0008400710197760598 -0.0030858966871977465  0.
0.0010130997923333256 -0.0042272499315900046  0.
0.0011825709760307865 -0.005538594639398815  0.
0.0013485121980483918 -0.007016717875140357  0.
0.001511028702388578 -0.008658466603299884  0.
0.0016702456028508627 -0.010460752459792513  0.
0.001826278066694899 -0.012420543554568437  0.
0.0019792196495791183 -0.014534849381845906  0.
0.002129140777262789 -0.016800707375929393  0.
0.002276091545180269 -0.019215172979250107  0.
0.002420105823333763 -0.021775312984858138  0.
0.002561205271657995 -0.024478201308073006  0.
0.0026994027526545516 -0.027320916375600534  0.
0.0028347050305028284 -0.030300539529700674  0.
0.0029671148117314684 -0.03341415404642022  0.
0.003096632236395828 -0.036658844518339714  0.
0.0032232559348714055 -0.040031696453085505  0.
0.003346983753236211 -0.04352979600157378  0.
0.0034678132327461376 -0.04715022976705067  0.
0.0035857419114417384 -0.05089008466709977  0.
0.003700767500452586 -0.05474644783241373  0.
0.0038128879746423296 -0.058716406532390755  0.
0.003922101606826297 -0.0627970481209784  0.
0.004028406966625226 -0.06698545999804315  0.
0.004131802898752831 -0.07127872958264589  0.
0.004232288490828753 -0.07567394429534924  0.
0.00432986303734715 -0.08016819154724117  0.
0.004424526003942601 -0.08475855873382072  0.
0.004516276994349904 -0.08944213323228643  0.
0.00460511572126617 -0.09421600240109843  0.
0.004691041981545991 -0.09907725358096436  0.
0.004774055635676846 -0.10402297409661684  0.
0.0048541565912084 -0.10905025125891471  0.
0.004931344789680899 -0.11415617236690577  0.
0.0050056201965726225 -0.11933782470953175  0.
0.005076982793836359 -0.12459229556662932  0.
0.005145432574709426 -0.12991667220876277  0.
0.005210969540660699 -0.1353080418951993  0.
0.005273593700599782 -0.1407634918689559  0.
0.005333305072844487 -0.14628010934728486  0.
0.005390103690868173 -0.15185498150517313  0.
0.005443989614576849 -0.15748519544839745  0.
0.005494962949840419 -0.1631678381714904  0.
0.005543023880220934 -0.16889999649486256  0.
0.0055881727161729644 -0.174678756974937  0.