<?xml version="1.0"?>
<VTKFile type="UnstructuredGrid" version="0.1" byte_order="LittleEndian" compressor="vtkZLibDataCompressor">
<UnstructuredGrid>
<Piece NumberOfPoints="7224" NumberOfCells="7014">
<PointData>
<DataArray type="Float64" Name="displacement" NumberOfComponents="3" format="ascii" >
0.0 0.0  0.
0.0 0.0  0.
0.0 0.0  0.
0.0 0.0  0.
0.0 0.0  0.
0.0 0.0  0.
0.0 0.0  0.
0.0 0.0  0.
0.0 0.0  0.
0.0 0.0  0.
0.0 0.0  0.
0.0 0.0  0.
0.0 0.0  0.
0.0 0.0  0.
0.0 0.0  0.
0.0 0.0  0.
0.0 0.0  0.
0.0 0.0  0.
0.0 0.0  0.
0.0 0.0  0.
0.0 0.0  0.
0.0 0.0  0.
0.0 0.0  0.
0.0 0.0  0.
0.0 0.0  0.
0.0 0.0  0.
0.0 0.0  0.
0.0 0.0  0.
0.0 0.0  0.
0.0 0.0  0.
0.0 0.0  0.
0.0 0.0  0.
0.0 0.0  0.
0.0 0.0  0.
0.0 0.0  0.
0.0 0.0  0.
0.0 0.0  0.
0.0 0.0  0.
0.0 0.0  0.
0.0 0.0  0.
0.0 0.0  0.
0.0 0.0  0.
0.0 0.0  0.
0.008331117942562674 -0.011086598786420274  0.
0.0028154107421292556 -0.005760462894468876  0.
0.003400916425778928 -0.004610776655703887  0.
0.0023521704545813567 -0.0033560513241873155  0.
0.0025066826394698266 -0.0027103470078890567  0.
0.0020160151866723533 -0.002051274057522887  0.
0.0020407255353247084 -0.0016190602526817246  0.
0.001725806165813276 -0.0011870282440482349  0.
0.0016939384445531559 -0.0008750419952254595  0.
0.0014579664233925602 -0.0005652678333960105  0.
0.001395821952572825 -0.0003322487834748102  0.
0.0012031112196203468 -0.00010109872787001385  0.
0.0011222951949002317 7.467478321312585e-05  0.
0.0009565974990918509 0.0002493639329918199  0.
0.0008628402204853089 0.0003804925711924334  0.
0.0007157147939527502 0.0005112848319230053  0.
0.0006119555550729857 0.0006054185447908472  0.
0.00047865343470451555 0.0006998107659483021  0.
0.0003662916039149951 0.000761563957893642  0.
0.00024405871927000408 0.0008239966746160772  0.
0.0001234982762962115 0.0008558871319833974  0.
1.0812929355124088e-05 0.0008887064551857984  0.
-0.00011832679301115721 0.00089160166023538  0.
-0.00022209089084666852 0.0008955026423022904  0.
-0.00036096519787362383 0.0008687572973203097  0.
-0.00045563435038910213 0.0008429109111306352  0.
-0.0006063478019590932 0.0007842479044203282  0.
-0.0006908481781584008 0.0007261667493725647  0.
-0.0008568876074056032 0.0006312516160721957  0.
-0.0009288971707063291 0.0005363465986711844  0.
-0.0011160426283752752 0.0003978679602656307  0.
-0.001171199271581383 0.00025851161900557407  0.
-0.0013894989321503618 6.427272296839099e-05  0.
-0.001419622245924011 -0.00013210267258122082  0.
-0.0016881006790736212 -0.0004034404103851419  0.
-0.0016768425952468388 -0.0006784826450230193  0.
-0.0020365858865457453 -0.0010684197609925222  0.
-0.0019470251585882417 -0.0014632427423669281  0.
-0.002507136019760289 -0.0020698942934982236  0.
-0.0022369028957592192 -0.0026783001930988574  0.
-0.0034152610698486323 -0.003841296622080462  0.
-0.0025552241113368274 -0.004978290715693161  0.
-0.00843302312426889 -0.009905702753492446  0.
0.011603478628989828 -0.01387586110632437  0.
0.00950429089196505 -0.012643100830151868  0.
0.00616177726995164 -0.008738727634725732  0.
0.00624748663298305 -0.007368353775347721  0.
0.004881587644778911 -0.005614903186365074  0.
0.004882186902223269 -0.004663324489136615  0.
0.004078558542138178 -0.003595754758295871  0.
0.003994699777175327 -0.0029052934940642094  0.
0.003425794607724626 -0.0021670809619270333  0.
0.0032893595551688384 -0.001649838368669917  0.
0.0028420059478975854 -0.0011081607458407413  0.
0.002671552940505016 -0.0007155975833857813  0.
0.0022965866261050035 -0.00030786408708730723  0.
0.0021021480668964227 -1.1382276023411996e-05  0.
0.0017748201493770605 0.0002962930598386324  0.
0.0015617219424402119 0.0005142781837637733  0.
0.0012682976624442106 0.0007417243859236881  0.
0.0010391056328761892 0.0008920837180096603  0.
0.0007715006801658464 0.0010512188534230345  0.
0.0005269535919800095 0.0011402886928689932  0.
0.0002803392352820136 0.0012379881712531568  0.
1.9741139717433105e-05 0.0012686637773321754  0.
-0.00020859048186962543 0.0013081529120450204  0.
-0.0004873213110401512 0.0012803311470929548  0.
-0.0006984594599548846 0.0012617836238536433  0.
-0.0009990446521694325 0.001172307835527644  0.
-0.0011925696064079949 0.001092912166932526  0.
-0.001521018241522064 0.0009349865622539827  0.
-0.001694762211948704 0.0007885205991006629  0.
-0.0020606944394076458 0.0005503447466647204  0.
-0.0022100326135257777 0.0003261208808829758  0.
-0.0026293865488013885 -1.19247591636734e-05  0.
-0.0027457044884192 -0.0003311490371062049  0.
-0.0032466591099696066 -0.0008025076365199297  0.
-0.0033141242929830244 -0.001244602064710275  0.
-0.003951627833867162 -0.0019108341713085133  0.
-0.003940331013552201 -0.002522618486248401  0.
-0.004838064684177794 -0.003513959531349624  0.
-0.004691360887429642 -0.004379050457107897  0.
-0.0061964916104025715 -0.006045113501105541  0.
-0.005857663999502337 -0.007311969477951773  0.
-0.009400611683888576 -0.01109718854137699  0.
-0.011224647586183177 -0.012229312748979995  0.
0.016823591525816573 -0.019108116804296915  0.
0.012917908738171486 -0.015142465476011733  0.
0.011621346799061629 -0.013654032377460691  0.
0.00905119710133352 -0.010502850387968268  0.
0.008761893529132295 -0.009085568562878132  0.
0.007271623408687768 -0.007178179882649398  0.
0.0070471418000859045 -0.006087463658443457  0.
0.006029193305674308 -0.004794498522901474  0.
0.00577785748218184 -0.0039598382653112515  0.
0.005001563799158788 -0.003022588507309093  0.
0.0047184795358099505 -0.0023805878270620855  0.
0.004082720073581934 -0.0016776783873177965  0.
0.0037727064806832465 -0.0011858558219701634  0.
0.0032269299990911613 -0.0006527165378924967  0.
0.0028940687829459677 -0.0002834160019967344  0.
0.00241038877307 0.00011734237582574662  0.
0.0020568285842447426 0.00038193271913738053  0.
0.0016187556487240403 0.0006729375987673178  0.
0.0012448427791319514 0.0008437967654277405  0.
0.0008422157662312716 0.0010386967563207107  0.
0.000446659012603502 0.0011216421646663614  0.
7.318676311206658e-05 0.0012279711025815195  0.
-0.0003469916072972592 0.00122445885636964  0.
-0.0006949571639652161 0.0012450342831561237  0.
-0.0011447489423100472 0.001152289150630219  0.
-0.0014687757327658383 0.001085745441028767  0.
-0.001955919637106525 0.0008962333145306169  0.
-0.0022556240839388337 0.0007369115897145014  0.
-0.0027920195369678037 0.0004369361377873552  0.
-0.0030648214718539085 0.00017413660355946171  0.
-0.003669228917596063 -0.0002590379266574576  0.
-0.003909704327129145 -0.0006426194762622614  0.
-0.00461317042056464 -0.001246588729333727  0.
-0.004812017941323911 -0.0017776164417643472  0.
-0.005669637860705586 -0.002617366326377249  0.
-0.0058131877947007055 -0.0033362952044830225  0.
-0.0069323810366330296 -0.004534226346838592  0.
-0.0070103078236661365 -0.005500371987676239  0.
-0.00862759639386135 -0.007318411456202621  0.
-0.008711768857355208 -0.008597059067814054  0.
-0.011415993097759154 -0.011671439026855999  0.
-0.012516260196972539 -0.013061413894763486  0.
-0.016509970863773628 -0.016768348369656138  0.
0.020178945977581044 -0.021197940422483384  0.
0.01811367683500305 -0.01965755195289347  0.
0.01489662269707357 -0.016061151941890978  0.
0.0138037492082796 -0.01448010074648167  0.
0.011536225572421517 -0.011712993045997756  0.
0.010979291590294952 -0.010292434395891358  0.
0.009409493811094512 -0.008359637621837373  0.
0.008958414992201779 -0.00721275254588833  0.
0.007776854626032592 -0.00580642199115831  0.
0.007336554090108298 -0.00490050881990542  0.
0.006384394491719033 -0.0038439247335150186  0.
0.00593211399776159 -0.003136266502191491  0.
0.0051260698271855505 -0.002330292007296139  0.
0.004655991940639525 -0.0017875661966783433  0.
0.003949286759905993 -0.001173712132737751  0.
0.0034593588164056233 -0.0007724986396309687  0.
0.0028240149078887266 -0.000314824123400748  0.
0.0023124040612246257 -3.968282826323833e-05  0.
0.0017308547172183563 0.000284170216585468  0.
0.0011948236335068859 0.0004423144344870633  0.
0.0006557101890416469 0.000645735884542824  0.
9.106976071916208e-05 0.0006905440048242887  0.
-0.0004129814935503639 0.0007803734137071491  0.
-0.0010124134119024555 0.0007103927675657782  0.
-0.0014859853100179215 0.0006880928951069377  0.
-0.002129193007935359 0.0004963906134819443  0.
-0.002574705706837365 0.0003584157754158472  0.
-0.0032748351972204355 3.137771208248929e-05  0.
-0.0036928576459447303 -0.00023109424586208034  0.
-0.004469604361039535 -0.0007162437681128176  0.
-0.004859061224411558 -0.001118178632776589  0.
-0.0057430520887804485 -0.001798138978066896  0.
-0.006101842349598951 -0.002362101409244612  0.
-0.007143084325360205 -0.003296766949043624  0.
-0.007470946544405264 -0.004054592994332436  0.
-0.008756021824203097 -0.005345866227823312  0.
-0.009067493457856547 -0.006338129960513904  0.
-0.01075542689129493 -0.008168229447828574  0.
-0.011140292860073193 -0.009428214210864056  0.
-0.013524459899636023 -0.012110639787457187  0.
-0.014446191547402535 -0.013561762701481773  0.
-0.017762853876986145 -0.017003969442750483  0.
-0.019585116720900835 -0.018451787608312273  0.
0.02487310862118853 -0.02516650789177834  0.
0.021554363746178997 -0.021671024397303236  0.
0.01977147392748464 -0.02003275434268516  0.
0.0169423248460478 -0.01680279253262239  0.
0.015826047898456725 -0.015211898592267126  0.
0.01367816237372728 -0.012676726091514821  0.
0.012900876643997576 -0.011275855599579995  0.
0.011257624926376804 -0.009368643349179655  0.
0.010590780037335216 -0.00821224127669714  0.
0.009271174130651436 -0.006759984434048293  0.
0.008635504773669082 -0.00583128953005415  0.
0.007527562774746862 -0.004712527442030973  0.
0.006893998125341447 -0.003983164252758532  0.
0.005930600007103802 -0.0031202157220430343  0.
0.0052866286048019635 -0.002565504437573263  0.
0.004426300348043903 -0.0019086297683294582  0.
0.003764819435144562 -0.001510398028439601  0.
0.0029809167448169773 -0.0010275563020303096  0.
0.002296166867030845 -0.0007740059514781552  0.
0.0015709678655360401 -0.0004449281637451562  0.
0.0008567857828284492 -0.0003301079913160287  0.
0.00017819106541412617 -0.00014293943915894808  0.
-0.0005730534182848116 -0.00016648404616923635  0.
-0.0012134352310841155 -0.00011594271345276019  0.
-0.0020118342458550404 -0.00028331993956608604  0.
-0.0026198618295384013 -0.0003698041447200798  0.
-0.0034792809925935078 -0.0006932482053141116  0.
-0.004059111708103516 -0.0009225950006327905  0.
-0.004999218652648188 -0.0014230410382374452  0.
-0.005554161359242376 -0.0018067564174414472  0.
-0.006603777052932389 -0.002517374629417359  0.
-0.007137819564680061 -0.003073121585292804  0.
-0.008340706137982616 -0.004045582962089142  0.
-0.008862442380652456 -0.004797321495795387  0.
-0.010287424371436907 -0.006112636637282185  0.
-0.010821835981874181 -0.007088338221896583  0.
-0.012579610926684772 -0.008873302530397103  0.
-0.013205652377080126 -0.010092925010992758  0.
-0.01546698751200571 -0.012524519368222669  0.
-0.01642975956900588 -0.013956021683861333  0.
-0.019360822002588495 -0.01706458547470938  0.
-0.02097240311793535 -0.018588959567190845  0.
-0.024345813261052375 -0.021897678867002945  0.
0.028371265327806355 -0.027160524391024173  0.
0.026228574441666014 -0.02543922654884307  0.
0.023136470885002362 -0.022104959339343883  0.
0.021457132586973866 -0.020434998808681035  0.
0.0188322521035929 -0.01749470261001769  0.
0.01761098743488161 -0.01593294786176608  0.
0.015498113922981848 -0.013565816700390514  0.
0.014520692942076667 -0.012202358349348822  0.
0.012800276695453127 -0.010344952141008064  0.
0.011927262835465259 -0.009209223205799458  0.
0.010482158373570987 -0.0077534124472611165  0.
0.009649789476920174 -0.006836196332292791  0.
0.008398165584513928 -0.005696439924612946  0.
0.007576233869440312 -0.004979078393319862  0.
0.006463822128599534 -0.0040953289336100535  0.
0.0056358939975350315 -0.003560439451599648  0.
0.004626406525713169 -0.002891823731087629  0.
0.0037814628969699347 -0.002526509924896612  0.
0.002850026725584228 -0.0020457989756460957  0.
0.00197870579063515 -0.0018424345134475794  0.
0.00110778218148234 -0.0015323387691438847  0.
0.00020039828300084846 -0.0014887736201136565  0.
-0.0006227820920362066 -0.00133963912739712  0.
-0.0015776254918109646 -0.0014595129505092222  0.
-0.0023627464325393075 -0.0014679903820167875  0.
-0.003379526080164468 -0.0017614740182122725  0.
-0.004134459601825783 -0.001929834034036184  0.
-0.0052324839220275875 -0.0024150641213386897  0.
-0.005964579850131824 -0.002750919942089054  0.
-0.007170542975967475 -0.003456475008533238  0.
-0.00788854109872774 -0.003972622335158486  0.
-0.009240446301452352 -0.004941528245218541  0.
-0.009958357248981106 -0.0056553350444815305  0.
-0.01151147498629678 -0.006950995614673256  0.
-0.012257692402781843 -0.007881871480856605  0.
-0.014092620567668517 -0.00959454759805802  0.
-0.014932231963391692 -0.010755709511992522  0.
-0.017159987270682193 -0.012996948619095887  0.
-0.018241937880449654 -0.014373771503146346  0.
-0.020974344153294383 -0.017192165714096843  0.
-0.02251378647940985 -0.01871775624882223  0.
-0.025693891909072213 -0.021899178008266268  0.
-0.027643836735482152 -0.023522997304884743  0.
0.03286857594716042 -0.030743469256754564  0.
0.029727073964429106 -0.027465438654342145  0.
0.027634747803506745 -0.025725166424571753  0.
0.024698337892085878 -0.02259877392014903  0.
0.02300892908051898 -0.02094330838796818  0.
0.02048134242041536 -0.018230024147206803  0.
0.019123111275597304 -0.01671850869886726  0.
0.016999308006010627 -0.014489971561692551  0.
0.015831032370455116 -0.013178698910418122  0.
0.014027450199988318 -0.011385228563126348  0.
0.012954645355576852 -0.010292074084170016  0.
0.011389533059150227 -0.008861018706388614  0.
0.010360226062925179 -0.007981061343007405  0.
0.008971480808339417 -0.0068506266260024975  0.
0.007956207678661321 -0.006172032092651485  0.
0.006699278338439773 -0.005295947167352495  0.
0.005679289813694331 -0.004807349604814921  0.
0.004522305589380834 -0.004152724835946415  0.
0.003483517069572671 -0.0038461695279192734  0.
0.002403262041810607 -0.003390652090258425  0.
0.00133304505590893 -0.003262795220182349  0.
0.00031208612632191543 -0.0029923311044223523  0.
-0.000802734441411374 -0.003045108144120479  0.
-0.0017780948951939008 -0.0029524125178104796  0.
-0.002952813357848381 -0.0031937650435993085  0.
-0.0038941405280470635 -0.0032773438654357953  0.
-0.005147791480250828 -0.0037223111013662156  0.
-0.0060660705257516235 -0.0039858277643680185  0.
-0.0074234478283886065 -0.004658241778103464  0.
-0.008331108966916002 -0.005109960233147136  0.
-0.009825469249011542 -0.006044914594095135  0.
-0.010739821823705118 -0.006696755651882137  0.
-0.012416478365455093 -0.007943713956105108  0.
-0.01336639928498075 -0.00880895550823135  0.
-0.0152866795946202 -0.010433858086203562  0.
-0.016325986745385195 -0.011521519710594303  0.
-0.01856808458912973 -0.013600290130221484  0.
-0.01979769934161251 -0.0149032429043074  0.
-0.02244008822357072 -0.017479979358156702  0.
-0.024005995550262706 -0.01896049880466139  0.
-0.027048789352748244 -0.021943171026884763  0.
-0.029000784016533318 -0.02355496911823156  0.
-0.0322222747790641 -0.02668131114453028  0.
0.036490505719982566 -0.03288040442466808  0.
0.034147272582901546 -0.031037790058833174  0.
0.031047841389949808 -0.027867627037542683  0.
0.028955175797802886 -0.026139231795721658  0.
0.026108882806100242 -0.023216142646072378  0.
0.024346047650666197 -0.02160425325581247  0.
0.02185155721531922 -0.019077041147475868  0.
0.020341702323206604 -0.01762969220021998  0.
0.018178509133241785 -0.015525041708694707  0.
0.016823716072374418 -0.014278604581086646  0.
0.014930488117876882 -0.012558765519260983  0.
0.013661468497440378 -0.01152541862717041  0.
0.011977676687526992 -0.010139167154033875  0.
0.010750850644861257 -0.00931691812726745  0.
0.009227577830228862 -0.00821866976068836  0.
0.00801467491364205 -0.007600752320096561  0.
0.006614527439276078 -0.0067548547265343555  0.
0.005395308145025103 -0.006334889348839374  0.
0.00408986576591085 -0.005715266796994319  0.
0.002847757616590261 -0.005489793623011054  0.
0.0016150321373806468 -0.005078581796590045  0.
0.00033443429866597996 -0.005048391011587424  0.
-0.0008432534570688531 -0.00483460976155544  0.
-0.002178872797109311 -0.00500567080244136  0.
-0.003316653257831504 -0.004984185549154219  0.
-0.004726394011935123 -0.005368597474456478  0.
-0.005838526699856988 -0.005539307870637911  0.
-0.007345760704352751 -0.006156496122907393  0.
-0.008447629390918782 -0.006523571501274466  0.
-0.01008197250042 -0.007401795857990011  0.
-0.011192997593774097 -0.00797261418918366  0.
-0.012992571200335989 -0.009150514452703814  0.
-0.014141099368069364 -0.00993369893607373  0.
-0.01615452553450013 -0.011460548879728704  0.
-0.017386101013160692 -0.012462047232884724  0.
-0.019672004629110847 -0.014392280351645  0.
-0.021060819921776826 -0.015608280409791404  0.
-0.02367756010005918 -0.01797825967999673  0.
-0.025326767901489 -0.019386704416028543  0.
-0.02829261666425009 -0.022159138368842375  0.
-0.030271793284124153 -0.023726308968499515  0.
-0.033482046459132615 -0.02674563657986505  0.
-0.03568454070243189 -0.028478002910946137  0.
0.040877602010516774 -0.0364275339965186  0.
0.037707343121621016 -0.03326882588106736  0.
0.03530863346260579 -0.03145499782023231  0.
0.032242801297214845 -0.028430588955085767  0.
0.030102217045431652 -0.02674024631762549  0.
0.027295656115101086 -0.02400304114116  0.
0.025424114775949393 -0.022453473012905546  0.
0.022921848684763404 -0.02008675664059119  0.
0.021252276767505532 -0.0187142965468808  0.
0.01903005714925154 -0.01672592836451292  0.
0.01749040654555406 -0.01555539012771381  0.
0.015500930519634136 -0.013916576107593536  0.
0.014037123488640632 -0.012957314755885048  0.
0.012233275580916409 -0.011630742604283366  0.
0.01080758255959809 -0.01088305262817387  0.
0.00914940508565728 -0.00983457764506813  0.
0.007734640952115605 -0.009295656069065437  0.
0.00618987974045844 -0.00849780175181785  0.
0.004764704750182072 -0.00816544622657789  0.
0.0033074261694100776 -0.007597780041231725  0.
0.0018531553304200947 -0.0074725230214670625  0.
0.00046201190509564884 -0.007121055905777675  0.
-0.001039640183043437 -0.007207474778244529  0.
-0.0023830932176185588 -0.00706386276247817  0.
-0.003951755933249434 -0.0073715847047175  0.
-0.005264721478779517 -0.007432342946697875  0.
-0.006922932688273471 -0.007976996471677166  0.
-0.00822323930628714 -0.008242685347206262  0.
-0.009998008816130092 -0.009046861775425704  0.
-0.011306569756614013 -0.009521043981829113  0.
-0.01323089583168311 -0.010615015464178406  0.
-0.01457532960710267 -0.011302612076299512  0.
-0.01668927355975381 -0.012723869864581393  0.
-0.018109233693411067 -0.013628339718990872  0.
-0.02045908694551949 -0.015417329835053268  0.
-0.022012672070945906 -0.016536170448197936  0.
-0.02464427746189172 -0.018722317023021174  0.
-0.026408441017926807 -0.020041893317046904  0.
-0.02934523734406798 -0.02261248449092764  0.
-0.03138635251802286 -0.024109668903910163  0.
-0.034582211560312576 -0.02697556874386766  0.
-0.03687552820901008 -0.028643141574380783  0.
-0.04016931408817895 -0.03166402534355943  0.
0.04459295774074238 -0.03882402934024691  0.
0.0419703498901129 -0.03689844180128693  0.
0.038759649444589435 -0.03383387997210146  0.
0.03629685122323629 -0.03206344469460839  0.
0.03324431971796283 -0.029195497551986384  0.
0.031020899661854288 -0.027562886341550515  0.
0.02821695205841318 -0.0249943797304124  0.
0.026215981736680296 -0.023520163617355438  0.
0.023678055171272475 -0.021297929860651023  0.
0.021843358848443226 -0.02000938359334003  0.
0.0195472411945714 -0.018133423854008787  0.
0.017822732502195505 -0.017048632393358278  0.
0.015730240995751366 -0.015496791001373463  0.
0.01407147792527219 -0.014623812388619433  0.
0.01214426111955946 -0.013368302192793627  0.
0.010517561076222577 -0.01270937341389958  0.
0.008721780110250307 -0.011724347402630278  0.
0.0071007545229782535 -0.01127987462912011  0.
0.005407715498471695 -0.01054415842742313  0.
0.003770117892400289 -0.010315451047091277  0.
0.002155461791261359 -0.009813161919486146  0.
0.00048077388145966956 -0.009804189630409592  0.
-0.0010768374712444872 -0.00952450103676546  0.
-0.002809262687404229 -0.009743087320875563  0.
-0.004329615860986538 -0.00967968838295631  0.
-0.006142082059448446 -0.010138413468883514  0.
-0.007645079504949016 -0.010288800285786588  0.
-0.009562889946989023 -0.011005701276200552  0.
-0.011070617299244813 -0.011370246992141543  0.
-0.013123216784898301 -0.0123691482811892  0.
-0.014662666220813329 -0.012949745407984947  0.
-0.016884288405129125 -0.014259590211966735  0.
-0.01849096901388831 -0.015057574284286886  0.
-0.020919841775527224 -0.016709189121264557  0.
-0.022641624601131043 -0.017722325957056674  0.
-0.025315507793510078 -0.019739519839232614  0.
-0.027212912883338884 -0.0209587013327747  0.
-0.030156127782239722 -0.0233398687454987  0.
-0.032287442244373764 -0.024749210209216135  0.
-0.03548344512619679 -0.02744397334588498  0.
-0.037860071392272904 -0.029033397767414315  0.
-0.04121767844126208 -0.03194368110211698  0.
-0.043748845706809335 -0.033740417519899916  0.
0.048895823467456696 -0.04251078609545824  0.
0.04558073484754786 -0.03942616297467605  0.
0.04285335533068035 -0.03756017820374602  0.
0.03961135677488114 -0.0346160628927281  0.
0.03706707321976539 -0.03290379711512725  0.
0.034006090253582 -0.030191208433824206  0.
0.031675693557030676 -0.028630832212102112  0.
0.02884674845756665 -0.02621724556172591  0.
0.02670316466185559 -0.02482823024125724  0.
0.02410916644171596 -0.022740311585838113  0.
0.02210505302261818 -0.021543601861506462  0.
0.01972285626144022 -0.019778239729799633  0.
0.017812342063694492 -0.018788010967530463  0.
0.015609809191592551 -0.01732802365751211  0.
0.013754751743652146 -0.01655188749105916  0.
0.011699359555150196 -0.015376275266138186  0.
0.00986885674069118 -0.014818169777065753  0.
0.0079308896694645 -0.013907217455815152  0.
0.006099058564223199 -0.013570183864107225  0.
0.0042521557585853366 -0.012907566070977518  0.
0.002395947326438403 -0.012795811905863487  0.
0.0006165081082380832 -0.012369207252915305  0.
-0.0012861536117548468 -0.012489515858387944  0.
-0.003020061271082531 -0.012290516291860837  0.
-0.0049917798318352595 -0.012653223126311832  0.
-0.006701801830704811 -0.012676876981911412  0.
-0.008766942133245163 -0.013296499360956086  0.
-0.010476129947670526 -0.01354057437719882  0.
-0.012661782566792632 -0.014436008785595034  0.
-0.014396695350907393 -0.014899914033531506  0.
-0.016733132260703314 -0.016093791956804458  0.
-0.018526382169121856 -0.016777026188453562  0.
-0.021046451750120952 -0.018293298751071125  0.
-0.02293916393125428 -0.01919335007765834  0.
-0.025675256256324715 -0.02105137743953087  0.
-0.027717290535590307 -0.022161512512818896  0.
-0.030693274989613783 -0.02436462856454078  0.
-0.032935188919257244 -0.025673541831411777  0.
-0.036149898600066274 -0.028193580347596527  0.
-0.03861786165604402 -0.02969181167046631  0.
-0.042022143807816104 -0.03246321998471934  0.
-0.044679588829656045 -0.0341617371090662  0.
-0.04816652581757239 -0.03710864971907147  0.
0.052675322273201174 -0.04522839670434737  0.
0.049726118069605606 -0.04324701608762756  0.
0.046332044988038244 -0.040254517823056786  0.
0.04350507935417137 -0.03845453226686251  0.
0.040228707983507236 -0.03564281710092305  0.
0.03758581999506218 -0.034001464036493255  0.
0.034496552453841006 -0.03143902420784341  0.
0.03204237926749084 -0.029961814358269903  0.
0.029167221942408474 -0.027692810751384096  0.
0.026871843546057896 -0.026396956652972738  0.
0.02420577483044864 -0.02443676986497276  0.
0.022028419104813762 -0.023338986191699485  0.
0.01954947060167293 -0.021683518726539695  0.
0.017450994328148537 -0.020795725466641143  0.
0.015131058688937868 -0.019431574510010347  0.
0.013077538469959911 -0.01876141442063977  0.
0.010887963550853686 -0.017672544892137126  0.
0.008850386563484693 -0.01722543117321194  0.
0.006764139735689073 -0.016396704154691064  0.
0.004716923578853508 -0.01617782059462851  0.
0.002708995923763075 -0.015596595446364714  0.
0.0006283935970089874 -0.015612436791558826  0.
-0.0013247354121197787 -0.01526907940004236  0.
-0.0034620432093082176 -0.015528529209357858  0.
-0.005383396176477494 -0.015416332012766525  0.
-0.007601456839630801 -0.015931327386390994  0.
-0.009514878414415211 -0.01604604336345696  0.
-0.011839329862249653 -0.01683177832307179  0.
-0.013771115770831994 -0.017170826312580906  0.
-0.016229601762990917 -0.018245246007618805  0.
-0.018210332112737253 -0.018806556585367534  0.
-0.02083209626831696 -0.020188578753049906  0.
-0.02289832759815724 -0.020969101787697845  0.
-0.025712138722408583 -0.022674575908968205  0.
-0.02790659525517356 -0.023668742005736088  0.
-0.03093555404117142 -0.025703036522668674  0.
-0.033302556697745435 -0.026902315489250705  0.
-0.036553789343558005 -0.029250018420963367  0.
-0.03912477082312975 -0.030646300683923506  0.
-0.042574238356197 -0.03326446309481315  0.
-0.04534272250917717 -0.034860955270200736  0.
-0.04892410174824887 -0.037689742033092846  0.
-0.05182670488507483 -0.03951892114306524  0.
0.056900479779180245 -0.049152491077090084  0.
0.05337078029092862 -0.04611858454657633  0.
0.0502946302102271 -0.044217192929627065  0.
0.046834214514777324 -0.04133464316136632  0.
0.04390335908135636 -0.039608764660812944  0.
0.040584248512119676 -0.036933384787340845  0.
0.0378283053707557 -0.03537337967808087  0.
0.034693478899740844 -0.032955094288671105  0.
0.03210339709747956 -0.03156959308858008  0.
0.029165038826506853 -0.02943756467814264  0.
0.02671086036850856 -0.028241569522393723  0.
0.02395941877706181 -0.026404761294627353  0.
0.021605155483897756 -0.025412235419884126  0.
0.01901962051689228 -0.023866502377897184  0.
0.016730663284277157 -0.02308808886599954  0.
0.014285595029643008 -0.02182293351711636  0.
0.01203089901237317 -0.02126653993511548  0.
0.00970014344235355 -0.020269605864679657  0.
0.007451982462357966 -0.019941876653602877  0.
0.005210150276966016 -0.019201445724344852  0.
0.0029431114656986107 -0.01910922106176839  0.
0.00076578021378958 -0.018615392579855276  0.
-0.001544417316219288 -0.018766821782513314  0.
-0.003681211482758914 -0.018511887520912238  0.
-0.0060587479637827625 -0.01891715711065536  0.
-0.008179438149449833 -0.018895468255817085  0.
-0.010649182351655372 -0.019567079194737422  0.
-0.012779880556461133 -0.019774544579114997  0.
-0.015367813207935762 -0.02072698491803583  0.
-0.01753766853034176 -0.021160256527137586  0.
-0.020270635915174726 -0.022408717830264407  0.
-0.02251304097946033 -0.02306412830878892  0.
-0.0254173731927854 -0.024621701485433495  0.
-0.02777014298699277 -0.02549417072103466  0.
-0.030868214748620334 -0.027366876332073232  0.
-0.03337088835353551 -0.028449495338751848  0.
-0.03667448954210639 -0.030629318198770517  0.
-0.039359701659361014 -0.031915185155337006  0.
-0.04285998148266037 -0.03437424371345567  0.
-0.045737445495944724 -0.03586292109204249  0.
-0.04939551131589911 -0.03855661534011379  0.
-0.05243559828773256 -0.04026610018020825  0.
-0.05618478238905272 -0.04315274697470469  0.
0.06071857561394513 -0.052224106730163984  0.
0.05741567577148541 -0.050206867027311565  0.
0.05378912585442126 -0.04726649868250861  0.
0.05059485386584134 -0.04544715674471077  0.
0.047070999784005814 -0.042684568276972916  0.
0.044028677158125785 -0.04104077196277902  0.
0.04065653249010112 -0.03850163859717286  0.
0.03777582079656884 -0.03703143617759381  0.
0.03458045039336137 -0.034751753155992916  0.
0.03184525386514468 -0.033464864114857384  0.
0.028829470052682882 -0.03146417211141874  0.
0.02621074716317562 -0.030373795922297223  0.
0.023362278832147063 -0.028657365235082635  0.
0.020827496838504257 -0.02777568403808738  0.
0.018125987787621534 -0.026339708971601834  0.
0.015643670002342312 -0.025676664471120464  0.
0.01306538746978836 -0.02451288331172434  0.
0.010606480313089086 -0.024076710360967424  0.
0.008126789805021548 -0.023175500243763518  0.
0.0056644908870774864 -0.0229738009549694  0.
0.0032588662611218494 -0.022325967006178508  0.
0.000767893511069943 -0.022366737133013487  0.
-0.0015880525195799584 -0.02196435521272422  0.
-0.004132287036477604 -0.022256732026746353  0.
-0.006463299278341256 -0.022093382631506866  0.
-0.009085383343364823 -0.022648004491271963  0.
-0.01141739039664137 -0.02271857763746889  0.
-0.014142318301694877 -0.023547430031317363  0.
-0.01650342532340286 -0.02384761628460961  0.
-0.019356508765755953 -0.024963144964613805  0.
-0.02177784747492281 -0.025488701262312747  0.
-0.02478380463355623 -0.02690185265859842  0.
-0.02729972785955259 -0.02764783605718789  0.
-0.03048036826277136 -0.02936464490838473  0.
-0.033126798413705874 -0.030325058947334654  0.
-0.03649665577059475 -0.03234184989621907  0.
-0.039305793923740874 -0.03351067076912943  0.
-0.04286540192152134 -0.035809462416868734  0.
-0.045855460349438396 -0.03718453593893778  0.
-0.04958416156005004 -0.03973303762023708  0.
-0.052746874200979246 -0.04132389985250502  0.
-0.05660124792364325 -0.044085722685540424  0.
-0.059897268558046675 -0.045923486256323254  0.
0.0648660192833201 -0.05644271786699682  0.
0.061078145042509156 -0.05344635803471241  0.
0.057639726633478494 -0.051522641798240607  0.
0.05392783421455451 -0.04868793404762396  0.
0.050616422042008766 -0.04695476959481939  0.
0.04702662154103707 -0.04431702828161042  0.
0.04386465956295393 -0.04276247276385636  0.
0.04042877453787126 -0.04035768311067365  0.
0.03741378259877716 -0.03898416598336888  0.
0.03414470357291661 -0.03683830438421438  0.
0.03125701541666686 -0.035655716732015355  0.
0.02815144196233279 -0.033782104127605336  0.
0.025363174999228265 -0.03280229042978277  0.
0.022407063343784863 -0.03120403350818513  0.
0.019688188473331005 -0.030438010318892515  0.