<?xml version="1.0"?>
<VTKFile type="UnstructuredGrid" version="0.1" byte_order="LittleEndian" compressor="vtkZLibDataCompressor">
<UnstructuredGrid>
<Piece NumberOfPoints="7224" NumberOfCells="7014">
<PointData>
<DataArray type="Float64" Name="displacement" NumberOfComponents="3" format="ascii" >
0.0 0.0  0.
0.0 0.0  0.
0.0 0.0  0.
0.0 0.0  0.
0.0 0.0  0.
0.0 0.0  0.
0.0 0.0  0.
0.0 0.0  0.
0.0 0.0  0.
0.0 0.0  0.
0.0 0.0  0.
0.0 0.0  0.
0.0 0.0  0.
0.0 0.0  0.
0.0 0.0  0.
0.0 0.0  0.
0.0 0.0  0.
0.0 0.0  0.
0.0 0.0  0.
0.0 0.0  0.
0.0 0.0  0.
0.0 0.0  0.
0.0 0.0  0.
0.0 0.0  0.
0.0 0.0  0.
0.0 0.0  0.
0.0 0.0  0.
0.0 0.0  0.
0.0 0.0  0.
0.0 0.0  0.
0.0 0.0  0.
0.0 0.0  0.
0.0 0.0  0.
0.0 0.0  0.
0.0 0.0  0.
0.0 0.0  0.
0.0 0.0  0.
0.0 0.0  0.
0.0 0.0  0.
0.0 0.0  0.
0.0 0.0  0.
0.0 0.0  0.
0.0 0.0  0.
0.014896751389030509 -0.020583166023890487  0.
0.0054345084432570676 -0.01088396649401163  0.
0.006275612901165296 -0.008785935912746233  0.
0.004506931880293126 -0.006473332607845161  0.
0.004689597618814854 -0.0052732833551687435  0.
0.003862660461288998 -0.004048715459399643  0.
0.003847761555447804 -0.003236992622327306  0.
0.0033142924604413703 -0.0024278192863200596  0.
0.0032127793074034714 -0.0018359351129742607  0.
0.00281063993210595 -0.0012506142262135715  0.
0.00266235569154897 -0.0008036011974131852  0.
0.002332339013561092 -0.0003623735156928553  0.
0.002154811479217506 -2.0715793970775777e-05  0.
0.0018701913805284594 0.0003168917533400416  0.
0.0016719599682451529 0.0005761024041487551  0.
0.0014189943911747825 0.0008329898287882361  0.
0.001204267964807193 0.0010236234133636354  0.
0.00097535387819098 0.0012134055719302055  0.
0.0007458900246991773 0.0013437711060262424  0.
0.0005367699243550273 0.001474449871366092  0.
0.0002926720896718944 0.0015489951571177574  0.
0.00010120498071384979 0.0016247093111495584  0.
-0.0001588089809285916 0.0016448213508328353  0.
-0.0003331549884049073 0.0016666439168868538  0.
-0.0006118245022458766 0.0016308818529639218  0.
-0.0007680512678004707 0.0015970324583807047  0.
-0.0010699890110187048 0.0015008852163676469  0.
-0.0012052702576508415 0.001406453825081355  0.
-0.0015378924517366755 0.0012415261529457363  0.
-0.0016467589775606868 0.0010776116110808144  0.
-0.00202219161087554 0.0008298867598629581  0.
-0.0020947556035391625 0.000581792704145848  0.
-0.0025339236758185808 0.00022805025696933997  0.
-0.0025519417364102933 -0.00012837603643945741  0.
-0.0030942537525137682 -0.0006285093871396607  0.
-0.0030215429435941164 -0.0011348772992201604  0.
-0.003751620629648037 -0.0018594133085970944  0.
-0.0035068250808391373 -0.002595065373344299  0.
-0.0046475230282199955 -0.00372713196781442  0.
-0.0040062833343471604 -0.004875599301011278  0.
-0.006399445253314334 -0.007044530614148643  0.
-0.004481330387826621 -0.009256096208343452  0.
-0.01614617240843732 -0.01840174542689653  0.
0.021319345479238937 -0.025979251262466575  0.
0.017421664349290954 -0.023643466275143743  0.
0.011674421649466919 -0.016626910496892758  0.
0.011628439720575454 -0.014073107156291766  0.
0.009299130050307539 -0.010871713806711307  0.
0.009169768435219102 -0.00908644082738413  0.
0.007798596543318492 -0.007113978221478992  0.
0.0075522102523089656 -0.005808006464745993  0.
0.006578030386518394 -0.004429742856759372  0.
0.006255252439461237 -0.0034420331739119527  0.
0.005486224691467517 -0.002420017192285524  0.
0.005112549620296215 -0.0016618048494542411  0.
0.004466057621482117 -0.0008834978389975531  0.
0.004055374752659354 -0.00030260353645638504  0.
0.003490182508822796 0.00029301529670722534  0.
0.003049601124314258 0.0007285705665967353  0.
0.0025430716115046868 0.0011771867955311076  0.
0.0020755385089602377 0.0014870527954676971  0.
0.0016145895093922981 0.0018100319700633956  0.
0.001120138204549961 0.002005502333675189  0.
0.0006972527933842347 0.0022150318001677933  0.
0.00017346550253610817 0.002301020673388043  0.
-0.00021514886042894263 0.002402596412013051  0.
-0.0007732281553209468 0.0023784137871013964  0.
-0.0011283811003182079 0.002371888583615559  0.
-0.0017288744812637203 0.0022310891430538512  0.
-0.002048413735651404 0.0021107473236783294  0.
-0.002703997066098484 0.0018399812182389435  0.
-0.00298213093663615 0.0015937022329185165  0.
-0.003712771458577287 0.0011700872826670282  0.
-0.003938379554130584 0.0007773328333262217  0.
-0.00477685684048977 0.0001630697586721452  0.
-0.00492995599883796 -0.0004090697263750202  0.
-0.005933839226494022 -0.001278162405988966  0.
-0.005978176600109506 -0.0020826459472994964  0.
-0.007258953473764752 -0.003324415844354863  0.
-0.00712611317277925 -0.004449935651676221  0.
-0.008932398900393879 -0.006313383683188016  0.
-0.008491012752687972 -0.007918222128538845  0.
-0.011510363278130802 -0.01107183882796593  0.
-0.010607034960870794 -0.013440171484353508  0.
-0.017593821031297675 -0.02064060942218396  0.
-0.020874030050524857 -0.022733556893822043  0.
0.030771354193502604 -0.035765141911491445  0.
0.02399236623726739 -0.028537141181187553  0.
0.0215319124261824 -0.02575108143852874  0.
0.017090085954477228 -0.020086934034374598  0.
0.016389871823424013 -0.01742586939378035  0.
0.013825329405309405 -0.013949441203215404  0.
0.013275974481335731 -0.011889488738029006  0.
0.011523048460995838 -0.00950375490241238  0.
0.010951146058791288 -0.007914916517162916  0.
0.009611126728070657 -0.0061658768551796144  0.
0.008998272065089087 -0.004931751058673998  0.
0.007898170398273783 -0.0036048632726982783  0.
0.007246950218046874 -0.00264773668780926  0.
0.00630103139803001 -0.0016283135356227377  0.
0.005614960633586032 -0.0008977928019982747  0.
0.004776343596395371 -0.0001192716403322881  0.
0.004056687256907125 0.00041691211990851917  0.
0.0032979737860478193 0.0009947841261834843  0.
0.002543383845333573 0.001356297836602798  0.
0.0018480257591249319 0.0017576599728001685  0.
0.001054481215245716 0.001954604887358085  0.
0.00041265426467516117 0.0021925348670731627  0.
-0.0004268732629705014 0.002226867986803187  0.
-0.0010202602106275643 0.002305832577138005  0.
-0.0019166107650751625 0.0021715359718705762  0.
-0.0024627267448771393 0.002088291263841407  0.
-0.0034321169803756247 0.0017702990730156542  0.
-0.003928198700199419 0.0015136253937004865  0.
-0.00499511609112182 0.0009850775427309656  0.
-0.005433677707687396 0.0005343489706995077  0.
-0.0066363113758000445 -0.0002489925674296537  0.
-0.0070034172634490825 -0.000926731703492048  0.
-0.008404441633217661 -0.0020377552291216817  0.
-0.008676904766289843 -0.0029928804122335353  0.
-0.010386584407177244 -0.004557401565533504  0.
-0.010529638026642411 -0.005865787902583053  0.
-0.01276048903141821 -0.008120779201114384  0.
-0.012740907764954913 -0.009892818877244702  0.
-0.015952358102258077 -0.013345433497955046  0.
-0.01589495456079195 -0.015702256366959388  0.
-0.021192209972833338 -0.02157469395606636  0.
-0.023103119219967404 -0.024167994132055032  0.
-0.03086755611244671 -0.031092210950492805  0.
0.03726136001255754 -0.03986956373189807  0.
0.03342082423518385 -0.036972555587824446  0.
0.027828536399765565 -0.03046460791034047  0.
0.02571710178584395 -0.027496890877265756  0.
0.021782069030676716 -0.022504246481881044  0.
0.020607520783484233 -0.019823309575157298  0.
0.017887917062143485 -0.01629513946676817  0.
0.016920340325638154 -0.014116450739874066  0.
0.014871788214927344 -0.011518815197739132  0.
0.013940967299502142 -0.00978336815722415  0.
0.012287473038760035 -0.007809019784993435  0.
0.011347790845453043 -0.0064388901518541135  0.
0.009946021926856475 -0.004914350704691485  0.
0.008982846575085955 -0.0038488847934033464  0.
0.007752978394427673 -0.0026713172969846737  0.
0.006759435834527679 -0.001868095919877391  0.
0.005654153531794761 -0.0009741846095588882  0.
0.004624447442024215 -0.0004055064129110616  0.
0.003614407820976311 0.00024405441580965925  0.
0.0025414751749328617 0.0005941034295461842  0.
0.001608101568880294 0.001022621667579197  0.
0.0004823679172644841 0.0011598578851608442  0.
-0.0003858976937270466 0.0013788404170673664  0.
-0.001577719956305848 0.0012994530399802796  0.
-0.0023873554596957228 0.00131061879830038  0.
-0.0036639632083330736 0.0010003761919579206  0.
-0.0044172839115693835 0.0007962423173349916  0.
-0.00580553483146162 0.00022809695298516583  0.
-0.0065009992402860406 -0.00020857193238780873  0.
-0.008040649014533276 -0.0010793570653204203  0.
-0.008672901480111465 -0.0017771695566313665  0.
-0.010425169445843336 -0.0030223407389604164  0.
-0.010985766557671228 -0.00402392765616906  0.
-0.013049589883708477 -0.005760368974944478  0.
-0.013532013776724527 -0.007125336964287119  0.
-0.01607640959414184 -0.009551800560857873  0.
-0.016501249998610548 -0.011355583180996085  0.
-0.01983042251140299 -0.014826808289646358  0.
-0.020367086815572113 -0.01713245502139469  0.
-0.02502428193746057 -0.022250294598212456  0.
-0.026589489811401152 -0.024938566026887894  0.
-0.033030382101811064 -0.03145299503958402  0.
-0.036284197425366815 -0.03414531599052417  0.
0.0458127363553914 -0.04732164225684116  0.
0.04002890034555621 -0.04095853022406353  0.
0.03669263015850262 -0.03788108669812103  0.
0.03176191184325418 -0.03204308798743075  0.
0.029594587962237788 -0.029043450115723925  0.
0.025853490891631952 -0.024449391662806297  0.
0.024280331987670406 -0.02179207835551209  0.
0.021419026804734453 -0.018300132167116664  0.
0.020052411717743957 -0.016090357500735997  0.
0.01775282685454807 -0.013401222403301374  0.
0.01645343141996419 -0.011610034014426271  0.
0.014520585088965619 -0.009513973118489732  0.
0.013234155948438693 -0.008090311219699461  0.
0.011552157403439331 -0.006452530412662117  0.
0.010253439572559116 -0.005351949710733412  0.
0.008751245460037641 -0.004085810390071392  0.
0.007424874378678095 -0.0032758065656560724  0.
0.006057250032912144 -0.002325461426965901  0.
0.004690505786202542 -0.001785306752910697  0.
0.0034277350734535712 -0.001115597403072527  0.
0.002007264482406419 -0.0008354490567110934  0.
0.0008294679041953965 -0.0004261657174341576  0.
-0.0006608090016158507 -0.00040667865207822903  0.
-0.0017669155042009306 -0.0002494202148453757  0.
-0.0033477995862862503 -0.0005023293897366318  0.
-0.00439083991124553 -0.0005990084850683068  0.
-0.006090457717018057 -0.0011490316082688064  0.
-0.007075718994289786 -0.0015115158516766538  0.
-0.008933489427043867 -0.0024002030902175613  0.
-0.00986429933931456 -0.0030507777956597687  0.
-0.011937380781503214 -0.004343491893045924  0.
-0.012817802423728073 -0.005315750085027643  0.
-0.015192009602468774 -0.007113994741129762  0.
-0.01603431636593717 -0.008453053390740744  0.
-0.018842687597400178 -0.010915678190805316  0.
-0.0196907201757954 -0.012674089683502775  0.
-0.02314297241247266 -0.016048763273224142  0.
-0.024147823900692065 -0.018265994598242914  0.
-0.028558908130974385 -0.02289264745948779  0.
-0.030201970520781628 -0.025523754705853295  0.
-0.03588590481805101 -0.031430571296482954  0.
-0.038762515636126676 -0.034259833556032786  0.
-0.04526509677771659 -0.04048384360759706  0.
0.05253706272501915 -0.051264934518108526  0.
0.04854816590353859 -0.048029658017383736  0.
0.0431497062205501 -0.041977872190050565  0.
0.03998408278103755 -0.03883093755823622  0.
0.03539760855384912 -0.033506708030215764  0.
0.033029003803309455 -0.030547557440274434  0.
0.02933673655403564 -0.026239108141222135  0.
0.027395873079405973 -0.02363841827275644  0.
0.0243883080801139 -0.020224861649330038  0.
0.02263843977089232 -0.01804064275318046  0.
0.020110214955018073 -0.015335600323002841  0.
0.01844011813467348 -0.013553044620551295  0.
0.016248755218218443 -0.011409709845011159  0.
0.014603464973960818 -0.009995987138624412  0.
0.012655135740932294 -0.008310990418241026  0.
0.01100323783994475 -0.007235388643077081  0.
0.009235646800742518 -0.0059382132145157415  0.
0.007555156606601422 -0.005178232660949582  0.
0.0059259543320845185 -0.0042219771593625  0.
0.004197768320135935 -0.0037648937405477412  0.
0.0026774247931511197 -0.0031200599799729484  0.
0.0008817254448865003 -0.002963417761951543  0.
-0.0005509056203040261 -0.0026140377669494168  0.
-0.002437267339994082 -0.002766358235339474  0.
-0.0037978316798474502 -0.0027077675778786293  0.
-0.0058039710443210345 -0.0031900911865694725  0.
-0.007104793123044999 -0.0034278031050872684  0.
-0.009269154474849845 -0.004276583725088503  0.
-0.010521505887828924 -0.004825853814752943  0.
-0.012896698106776327 -0.006097894052193399  0.
-0.014114342067898186 -0.006983463349905716  0.
-0.016774405364523938 -0.008763838439096805  0.
-0.017981124635666833 -0.010018855580761654  0.
-0.02103220801114186 -0.01243251345883708  0.
-0.02227994410913706 -0.014094135993402585  0.
-0.025873959766008696 -0.01731801124999979  0.
-0.027287565189297504 -0.019413570663047185  0.
-0.031629224839698676 -0.02366272738045074  0.
-0.033499478339136475 -0.026174533547486587  0.
-0.03879641185781266 -0.03152938618943806  0.
-0.04153831328395661 -0.03434409563899599  0.
-0.04767849313861284 -0.04036318935638519  0.
-0.05116199539289029 -0.04338117370850864  0.
0.060743927851382586 -0.05800916936607786  0.
0.055257320454884615 -0.0520456843618346  0.
0.05135083510992865 -0.04876676118541906  0.
0.04621289857062317 -0.04309287740475113  0.
0.04301122604078065 -0.039958914666506314  0.
0.03858390670135797 -0.03502971307373597  0.
0.03595593280958169 -0.032150368152527954  0.
0.03223368773366838 -0.0280759268350292  0.
0.029938402376507536 -0.025559404210920286  0.
0.02677528189822858 -0.022249286393784453  0.
0.024652011455889987 -0.02013175335449732  0.
0.021905161113190196 -0.017461457525011798  0.
0.019863466674602082 -0.01573610516268009  0.
0.017424886717937838 -0.01360028453054119  0.
0.015411709395904452 -0.0122470891092553  0.
0.013204348250638832 -0.01056676411322232  0.
0.011184606287287187 -0.009566370146683198  0.
0.009153664195491988 -0.008285402052550435  0.
0.007100110247500061 -0.007624719256011618  0.
0.0052059333370127565 -0.006705150780582413  0.
0.003093621815756439 -0.0063797054267625865  0.
0.0013066722955973548 -0.005798077769546005  0.
-0.0008906219966035909 -0.005813384026890088  0.
-0.002593336870497269 -0.005558214086408442  0.
-0.004906021643479218 -0.0059312796792974675  0.
-0.0065437627907642335 -0.006001448633724506  0.
-0.009009462351841814 -0.006763002012063569  0.
-0.010600554998574721 -0.007166710940354982  0.
-0.013267865662022829 -0.008364613126037574  0.
-0.014833501150085592 -0.009118443682066282  0.
-0.017766913489641357 -0.010822603549265085  0.
-0.019337833919835692 -0.01194988747570524  0.
-0.022624038655447293 -0.014258336701304821  0.
-0.024253828867576547 -0.01578521665808724  0.
-0.028008180400763746 -0.018827828447993415  0.
-0.029799954326117973 -0.02077388382364614  0.
-0.034166828140682136 -0.024697997570364498  0.
-0.03631665368797968 -0.027056775236546815  0.
-0.04144038868963485 -0.03194169728487078  0.
-0.04423036299565126 -0.034653320233934665  0.
-0.050109825541004425 -0.04030587855480959  0.
-0.0536193630818579 -0.043286346441946455  0.
-0.05981257479411767 -0.04919612656509484  0.
0.06768456978736664 -0.06223572603741173  0.
0.06332177334681136 -0.058766424906887764  0.
0.05789719208290104 -0.053001047876743125  0.
0.05397404419546541 -0.04973092780339126  0.
0.04898280050310477 -0.0444166722779827  0.
0.04563099475274479 -0.041349110359507654  0.
0.04125145432409984 -0.0367397421232986  0.
0.038336547185957824 -0.03396619926354028  0.
0.0345354210593431 -0.030100286197227995  0.
0.03189113752696221 -0.02769164475292851  0.
0.02856179672341567 -0.02450247703497977  0.
0.0260700372516891 -0.02248410460748345  0.
0.02310707323657052 -0.019884603805004585  0.
0.020691935635161654 -0.0182551302920863  0.
0.018010409210284975 -0.01616820630781691  0.
0.01562114472861263 -0.014917133033678117  0.
0.013156370837234546 -0.013282533497856077  0.
0.010755446309301125 -0.012399951705158263  0.
0.00845845452078051 -0.01117373758393775  0.
0.006014264307637241 -0.010655159462316599  0.
0.003847312547776027 -0.009807541025300058  0.
0.001329551634409684 -0.009656501501860839  0.
-0.0007376164637628008 -0.009169702962024637  0.
-0.003361322378121596 -0.009399631489698832  0.
-0.005354602635677425 -0.009266208112382246  0.
-0.008121664603380598 -0.009902366540358653  0.
-0.010065638993809538 -0.01012387440365104  0.
-0.01302160595664292 -0.011205786211521235  0.
-0.014943292856792018 -0.011791501987012086  0.
-0.018145380976082037 -0.01337597844282276  0.
-0.020079887735494385 -0.014341091770306243  0.
-0.023600870496467218 -0.016505254576484454  0.
-0.02560106232475954 -0.017867536814031894  0.
-0.029532382404491124 -0.020709048448189937  0.
-0.03168529276473603 -0.022482324625475773  0.
-0.03613544280181043 -0.026107727386469062  0.
-0.038584584533081306 -0.028290223688743944  0.
-0.04366061890502288 -0.032767621228871814  0.
-0.0466051124515474 -0.035326712088782374  0.
-0.05234011442625064 -0.04057631379834693  0.
-0.05590683882229297 -0.0434551177007281  0.
-0.06209458330215809 -0.04917058425099752  0.
-0.06605094295094975 -0.052383318269269286  0.
0.07568848620101928 -0.06892289810031277  0.
0.0701421916211354 -0.06317495797963094  0.
0.06566690676389401 -0.05974542526057808  0.
0.060289270453698425 -0.054239197757691864  0.
0.056260911230922805 -0.05102473618933301  0.
0.0513288697330714 -0.04603381322305108  0.
0.04776346150712467 -0.04306758658357163  0.
0.04336061083915559 -0.03873201700396529  0.
0.04014293854594449 -0.036084413861056874  0.
0.03622901965916882 -0.032414133335439445  0.
0.03323690173026574 -0.030134255792129225  0.
0.0297300560498109 -0.027079598708157383  0.
0.026870988063092214 -0.025187433981925775  0.
0.023689415852359858 -0.02268562530662422  0.
0.02089746409748595 -0.021184061571913885  0.
0.017971857645031522 -0.019177940531824943  0.
0.015198180140826792 -0.018063954381099753  0.
0.012472686130599065 -0.016507653471673833  0.
0.00967783325668783 -0.015779289794361433  0.
0.007107598679996392 -0.014638935266078068  0.
0.0042561947480498855 -0.014299393563448587  0.
0.0018042906139036274 -0.013552210183271143  0.
-0.0011388262467518996 -0.013612410820951831  0.
-0.0035044136560277717 -0.013245471811278825  0.
-0.006577247641850026 -0.01372607200793025  0.
-0.008886641927909474 -0.013735036093402311  0.
-0.012132814036065557 -0.014668361703525746  0.
-0.014417749426039884 -0.015056130768847108  0.
-0.017889243384758263 -0.016488120587319653  0.
-0.020187807092513894 -0.017263086721261714  0.
-0.02394752565148083 -0.019254704702138015  0.
-0.026311267542206838 -0.020427984133781045  0.
-0.030434616489145666 -0.023054148521516018  0.
-0.03293905498401574 -0.0246348952357454  0.
-0.037511959882801864 -0.02797558952657536  0.
-0.04026899959314749 -0.0299635865549763  0.
-0.04537567706173214 -0.03407551783348552  0.
-0.04853356428318669 -0.036452193136934326  0.
-0.05421672467143575 -0.041307418105689636  0.
-0.0578998601157413 -0.04403649923319  0.
-0.06406917224278999 -0.049458894233034574  0.
-0.06821541742036556 -0.05253055247317573  0.
-0.0745495200703195 -0.058257501132574045  0.
0.08279579513203686 -0.0736504659670729  0.
0.07791423875569992 -0.07001392461985032  0.
0.07228409355746797 -0.06442991385245288  0.
0.06767583828034132 -0.0610655073691428  0.
0.06231004396054608 -0.055832631761757234  0.
0.058112674568485866 -0.05271006157270513  0.
0.053175178884867204 -0.04800942589209345  0.
0.049358650844249716 -0.045169059129983695  0.
0.04488382713992262 -0.04107894041736076  0.
0.04135247183543466 -0.0385743748084682  0.
0.03729984681978068 -0.03509343331584938  0.
0.03395839878176164 -0.032961050454685475  0.
0.03026213786104963 -0.030051941673459464  0.
0.027034188095988235 -0.028309241129774  0.
0.02362783794243024 -0.025925823498766976  0.
0.020454223367226118 -0.024579335504941343  0.
0.017279078226606102 -0.02267889970566479  0.
0.014112242539004682 -0.021731687429757365  0.
0.01111847406988039 -0.020279436366249123  0.
0.007917307988134604 -0.019736274163369438  0.
0.005062523604721606 -0.01870642651057499  0.
0.0017883425559539732 -0.018577178429471874  0.
-0.0009647759490245979 -0.017952665063723755  0.
-0.0043513910656579075 -0.01825462872434845  0.
-0.007037769113486165 -0.018026262059476994  0.
-0.010579608159904476 -0.01878597864633482  0.
-0.013234893827924215 -0.01895131033636313  0.
-0.0169804252391361 -0.02020598236467296  0.
-0.019644946859280144 -0.02076776472599535  0.
-0.02365020728629173 -0.02256591371202159  0.
-0.02637427856783801 -0.023529837217845462  0.
-0.030703769693306387 -0.025929895994620405  0.
-0.03355475195130768 -0.027301152347132793  0.
-0.03827966350981924 -0.03036481998278788  0.
-0.041349365133333656 -0.03214314948311218  0.
-0.0465393104233522 -0.03591742816055241  0.
-0.04994402760324184 -0.03809151809669505  0.
-0.05564351254285874 -0.04257241737157585  0.
-0.059493567661815065 -0.045119179869473995  0.
-0.06566985859686082 -0.05020761182824312  0.
-0.06997943203253582 -0.05311321084173704  0.
-0.07645251121257188 -0.05862338685102549  0.
-0.08102964076200934 -0.06194482808160366  0.
0.09063555446888555 -0.08060830184522359  0.
0.0848259103368277 -0.07498891592410865  0.
0.07973938836926493 -0.07144621403108574  0.
0.07404150965120268 -0.06607069095464446  0.
0.06926657579900504 -0.06279824163466846  0.
0.06387490757424398 -0.05783369308237129  0.
0.05946475876410774 -0.05483019778012944  0.
0.05447352349278559 -0.05039435042866343  0.
0.05038173092938448 -0.04769855731452347  0.
0.04579912684020792 -0.04383618868099931  0.
0.04194527904378961 -0.04148981269408186  0.
0.03773246302245098 -0.03819555372191444  0.
0.03403833396191021 -0.03622757229377677  0.
0.03013999814527068 -0.03347315806075487  0.
0.026539587194114565 -0.031900209215915104  0.
0.022899388530775444 -0.02965134167985504  0.
0.019338081102152054 -0.028483174816149422  0.
0.015904354062174986 -0.026707820014469457  0.
0.012335316664907926 -0.02595253197802478  0.
0.00906204789561821 -0.02462440161831516  0.
0.0054426598492640825 -0.02429236116226575  0.
0.0022884088958838207 -0.023391995680987106  0.
-0.0014228300868388596 -0.023498564088536497  0.
-0.00449693150057041 -0.023013254929973175  0.
-0.008342923857710228 -0.02358070646077244  0.
-0.011375750628010124 -0.02350379140929871  0.
-0.015402873184295326 -0.024562573232846278  0.
-0.018436524843135776 -0.02489224272814012  0.
-0.022696197941284236 -0.026481370163068386  0.
-0.025780058346860913 -0.02721889334599338  0.
-0.030329344300265886 -0.029384633312524937  0.
-0.03352501913728926 -0.03053180665725133  0.
-0.03842526995880081 -0.033322769057343625  0.
-0.04181128428158046 -0.034878479712492014  0.
-0.04712246568518599 -0.038333747336976816  0.
-0.05079435600399049 -0.04029029971313274  0.
-0.056560371696537805 -0.04441688400821709  0.
-0.06061420111548663 -0.046759085787080566  0.
-0.06683194541267072 -0.05150244336480478  0.
-0.07131371138384611 -0.05421813094512437  0.
-0.07788692123640667 -0.05945392464139931  0.
-0.08271578667157192 -0.0625688428014926  0.
-0.08943149412520783 -0.06816253435605418  0.
0.0978576049921859 -0.08595236624749122  0.
0.09236978831634059 -0.08219549847304561  0.
0.08640729572628357 -0.07673083263928542  0.
0.08112202014342236 -0.07329361760798435  0.
0.07535138697343155 -0.06814575924144443  0.
0.07037789317377079 -0.06498901873757144  0.
0.06492577836699222 -0.06028182740180423  0.
0.06027242504576533 -0.05741817106503746  0.
0.055190165397217855 -0.05322847632637528  0.
0.05080605770323524 -0.05069253756776806  0.
0.04608738940659418 -0.04704667523497041  0.
0.041903171155155926 -0.044872179372141385  0.
0.037511070446005663 -0.04176387803526208  0.
0.03345959620942636 -0.0399755316144127  0.
0.02934566699335316 -0.03738334067589161  0.
0.02536780688707233 -0.035997844733133604  0.
0.021482308962116094 -0.03389611976096295  0.
0.017526451279809292 -0.03292604392438216  0.
0.01382216735306212 -0.03129071383696769  0.
0.009841831369695676 -0.030748282297892015  0.
0.006274774938387296 -0.029559518282413936  0.
0.002226013802637443 -0.029459550467521873  0.
-0.0012455701816207678 -0.028702660320468355  0.
-0.005406483498818998 -0.029064656083219193  0.
-0.00882397188394966 -0.02873001030503539  0.
-0.013142443638392783 -0.029579454442716705  0.
-0.016549336342176698 -0.02966175879410216  0.
-0.021073828889880297 -0.031030521511656795  0.
-0.024518870961337532 -0.03152753268612412  0.
-0.029301453940766022 -0.03345284607716025  0.
-0.03284216272935467 -0.034363494211946656  0.
-0.037937567418087854 -0.036884366491728535  0.
-0.04164343527376623 -0.03820633337575307  0.
-0.04710513142376517 -0.041355472266364164  0.
-0.051057763007342855 -0.043082682537297495  0.
-0.05692846187932307 -0.0468719013251828  0.
-0.06121216721358097 -0.04899370528590462  0.
-0.06750468090980384 -0.05339420541701077  0.
-0.0721772961850133 -0.05590093462974175  0.
-0.07884473519668024 -0.06083187070649311  0.
-0.08388749482530117 -0.06373469395432174  0.
-0.09079893817586815 -0.06908795298844102  0.
-0.09607964041279346 -0.07245533558925103  0.
0.10553947202578563 -0.09336412585678279  0.
0.0993425054664673 -0.08782679568204911  0.
0.09360673930167981 -0.08419973089562116  0.
0.08751385789027338 -0.07892112803892264  0.
0.08202037594156826 -0.07560460128444024  0.
0.07616262630916347 -0.07068989054138648  0.
0.07096409438381257 -0.06766866505263745  0.
0.06542123578764722 -0.06320734744337465  0.
0.06050262644412115 -0.060499950883697855  0.
0.055299292173720066 -0.05654298643843463  0.
0.05060967745678449 -0.05417989884670136  0.
0.04573119546679164 -0.05074327963391287  0.
0.04120908921422498 -0.04875301662986116  0.
0.036619849071972625 -0.045830871077123754  0.
0.03220545884056612 -0.04423573110950317  0.
0.027861521918591592 -0.041811798820417787  0.
0.023500321980153904 -0.040629008404550256  0.
0.019356076450189483 -0.03868404720625216  0.
0.014998431705161054 -0.03792855587737186  0.
0.011009224547172252 -0.036444444797058856  0.
0.00660879199214111 -0.036131696973147845  0.
0.002731257733092013 -0.03509340781642523  0.
-0.0017569202616104023 -0.035241472084568036  0.
-0.005565830666478547 -0.034637736046750855  0.
-0.010186984097315721 -0.03526871034449536  0.
-0.013971764410336377 -0.03509184672302487  0.
-0.018772632077725046 -0.03623239176024787  0.
-0.02258152796735254 -0.036477521459206255  0.
-0.027610935391327456 -0.03815819504536347  0.
-0.031498537051602375 -0.038821937551759805  0.
-0.03680676390509059 -0.04107462186967632  0.
-0.040836269469621704 -0.04215339342799742  0.
-0.04647239573558474 -0.04500571191380965  0.
-0.050715788352513766 -0.04649397791143939  0.
-0.056721367025356295 -0.04995952968315174  0.
-0.06125383392298252 -0.05184913833734949  0.
-0.06765063908265194 -0.05591412984044092  0.
-0.07253319893075524 -0.05819739110588039  0.
-0.07930386973515482 -0.06281025318735776  0.
-0.08455131845059448 -0.06549150030723488  0.
-0.09161973175543445 -0.07057138794145273  0.
-0.09716825423701592 -0.07369042153992234  0.
-0.10440212656255315 -0.07916917009126435  0.
0.11282921317201511 -0.09938679597313835  0.
0.10668411136130034 -0.09554359489546993  0.
0.1003016327069441 -0.09016015845893434  0.
0.09433192815757999 -0.08666730160385647  0.
0.08811412074218716 -0.08159193539971046  0.
0.08239792102337794 -0.07841134169099205  0.
0.07643514366435195 -0.07372868157232207  0.
0.07099025363058988 -0.07085925222932413  0.
0.06533018811956061 -0.06663363933536935  0.
0.06012947462718463 -0.06409593164333598  0.
0.05477970054620309 -0.06036194229610734  0.
0.04977363094057179 -0.05818301192618908  0.
0.04471429220415793 -0.054950760094882437  0.
0.03984693683207869 -0.053155752929803915  0.
0.035043274651853605 -0.05042024488177497  0.
0.030259831840787153 -0.049030153359105245  0.
0.025670628513471013 -0.046779092853678005  0.
0.020919689785188617 -0.04581180228134108  0.
0.016501689645637002 -0.044030696451325506  0.
0.011735001943475454 -0.0435030308077992  0.
0.007444695327317289 -0.04217814541569409  0.
0.0026160161507471076 -0.04210782031492791  0.
-0.0015903536195321748 -0.041227594208231584  0.
-0.006526554461924491 -0.041634644052036526  0.
-0.010693951400975637 -0.041190117477427735  0.
-0.015783557078027043 -0.04209757707846351  0.
-0.019959729151445282 -0.042082115758956644  0.
-0.025249529438149364 -0.043515695587881945  0.
-0.029486892772975472 -0.043924199871021787  0.
-0.035024251163964674 -0.04591051074670058  0.
-0.03938147141853706 -0.046738263035593246  0.
-0.04521253295951767 -0.049300927078215935  0.
-0.04975477271010009 -0.05054239718906583  0.
-0.05592016975410743 -0.0536953565088647  0.
-0.06071565118601431 -0.05534368547378457  0.
-0.06724244626187247 -0.059081981604830566  0.
-0.0723517945963518 -0.06113077006674042  0.
-0.07924071842862379 -0.0654221725065889  0.
-0.08469644572298002 -0.0678724131013904  0.
-0.09190736381167244 -0.07265883257320944  0.
-0.09768911793143834 -0.0755338123539835  0.
-0.10513659425234996 -0.08075362151991203  0.
-0.11116314789465537 -0.08411955601694152  0.
0.120348908075213 -0.10736019123950877  0.
0.11368609897881944 -0.10187753027260879  0.
0.10727515867476534 -0.09818820661463919  0.
0.10072777259947505 -0.09298073440881019  0.
0.09452480540889124 -0.08963036631737104  0.
0.08817795481852153 -0.08476636663311833  0.
0.08222389715009903 -0.08173559963910605  0.
0.07613727948699167 -0.0772811164731602  0.
0.07042873490551567 -0.07457691258540132  0.
0.06462803334662214 -0.070578506936632  0.
0.05913159878219509 -0.06822169565062002  0.
0.05361313063146023 -0.06470345354644164  0.
0.04828098866797723 -0.06271850847301413  0.
0.043021395953009064 -0.05968713563728428  0.
0.0378015462464655 -0.0580970074464788  0.
0.03276639997720758 -0.05554849717111738  0.
0.027607508487343453 -0.0543734643180227  0.
0.0227570294613021 -0.05229851826768578  0.
0.017609866250925553 -0.051557029712655515  0.
0.012901927682835506 -0.0499446647176197  0.
0.007719281476695697 -0.04965480744445833  0.