<?xml version="1.0"?>
<VTKFile type="UnstructuredGrid" version="0.1" byte_order="LittleEndian" compressor="vtkZLibDataCompressor">
<UnstructuredGrid>
<Piece NumberOfPoints="2626" NumberOfCells="5000">
<PointData>
<DataArray type="Float64" Name="displacement" NumberOfComponents="3" format="ascii" >
0.0 0.0  0.
0.0 0.0  0.
0.0 0.0  0.
0.0 0.0  0.
0.0 0.0  0.
0.0 0.0  0.
0.0 0.0  0.
0.0 0.0  0.
0.0 0.0  0.
0.0 0.0  0.
0.0 0.0  0.
0.0 0.0  0.
0.0 0.0  0.
0.0 0.0  0.
0.0 0.0  0.
0.0 0.0  0.
0.0 0.0  0.
0.0 0.0  0.
0.0 0.0  0.
0.0 0.0  0.
0.0 0.0  0.
0.0 0.0  0.
0.0 0.0  0.
0.0 0.0  0.
0.0 0.0  0.
0.0 0.0  0.
0.017207292620234224 -0.022963305697672638  0.
0.01007940136516685 -0.014311997620604438  0.
0.008096368606456886 -0.009916593816446051  0.
0.006912630658584608 -0.0069298320440186805  0.
0.005985820324443686 -0.004713425342809421  0.
0.005176238914948887 -0.002998150976870954  0.
0.004431393590021367 -0.0016399833589888688  0.
0.003726595942309795 -0.0005527603612708764  0.
0.0030483053963839134 0.00031837230911728963  0.
0.002388164160843004 0.0010095528237138317  0.
0.0017404724103423116 0.001544829692298719  0.
0.001100958008291564 0.001939870332069652  0.
0.00046610956052187217 0.0022040630159551843  0.
-0.00016724062458319707 0.002341650623165154  0.
-0.0008022361492263534 0.00235219381668176  0.
-0.001442294726184166 0.0022304713252141737  0.
-0.0020914860093683555 0.0019657896792085626  0.
-0.002755081550413188 0.0015405180378305133  0.
-0.0034404703784981093 0.0009274486076911537  0.
-0.004158789008023839 8.521290061956509e-05  0.
-0.004928034945651853 -0.0010497276549090316  0.
-0.005779396350619166 -0.002577353342589335  0.
-0.006771342071606631 -0.00466029130114694  0.
-0.008025219584354818 -0.007573519495942548  0.
-0.009833484040669107 -0.01180135491570613  0.
-0.013014061705331571 -0.0182547089976778  0.
0.031198254801506804 -0.03520651853064729  0.
0.023493813813651305 -0.02701513021250915  0.
0.018614535411111032 -0.020052058516668185  0.
0.015639032419895473 -0.014952219710176655  0.
0.013383429335147754 -0.011008607511179245  0.
0.0114768449749443 -0.007870225371845717  0.
0.009768822417677575 -0.005336303135575617  0.
0.008185179845808445 -0.0032801689590860866  0.
0.006683993578708535 -0.0016174772287427302  0.
0.0052389682496350775 -0.00029061666456227494  0.
0.0038320875320300156 0.00073978769047496  0.
0.002449913457367588 0.0014998067219138794  0.
0.0010815205288736494 0.0020050848199038673  0.
-0.00028281380347909774 0.002262419030146295  0.
-0.0016525955881469348 0.0022703992731661414  0.
-0.0030380008053517904 0.0020192513768372785  0.
-0.004450904384363459 0.0014898873017875438  0.
-0.005906252859106525 0.0006520283116607144  0.
-0.0074241410367434785 -0.0005388608639833059  0.
-0.009033163831857432 -0.002146223663944574  0.
-0.010776180162383239 -0.004259199785265132  0.
-0.012720759879928092 -0.0070020516337313335  0.
-0.014979667995803147 -0.010546143718404706  0.
-0.01775569656317053 -0.01512120313922447  0.
-0.02145758871944828 -0.02100848180244528  0.
-0.027075612051228916 -0.02842891035705794  0.
0.04418608008225249 -0.04495913076593353  0.
0.03636355278454168 -0.03707073277843615  0.
0.03022057410098008 -0.029738115225940765  0.
0.025513718347049706 -0.023468363091261723  0.
0.02180388494210577 -0.018343436544607693  0.
0.01865456897255849 -0.014134352970385893  0.
0.015845586559788724 -0.01066370207693388  0.
0.01325783770617793 -0.007805438771352412  0.
0.010820148714178563 -0.005469632118554772  0.
0.008486088409695865 -0.003591939157408134  0.
0.006222913996581798 -0.0021269674384572458  0.
0.004005709626056133 -0.001044064984595267  0.
0.0018139795852660334 -0.00032472165850268444  0.
-0.000370573618655189 3.892067922644617e-05  0.
-0.002565733388681942 4.47122811305293e-05  0.
-0.004790245948075266 -0.000319579170958954  0.
-0.007065431339540866 -0.0010770028991961183  0.
-0.009417163022110328 -0.0022628226669079627  0.
-0.011878601854675378 -0.0039265811102231  0.
-0.014494197859788904 -0.006134751820419963  0.
-0.01732590331156959 -0.008973700220575203  0.
-0.02046322846820543 -0.01255200480718044  0.
-0.024040656042779482 -0.016999660960761248  0.
-0.028270606623763083 -0.02245724823421807  0.
-0.03351449453370347 -0.029034505769141003  0.
-0.04046388412665603 -0.036666180976722904  0.
0.056820277239614976 -0.0539790066024767  0.
0.04880834513288075 -0.046226515160518934  0.
0.04183147665422721 -0.03885291875875909  0.
0.03589430488339855 -0.03218793558543172  0.
0.03083737300398367 -0.026393201520083745  0.
0.026429707044284576 -0.021466064525987885  0.
0.022462433063233256 -0.017310875122711553  0.
0.01879845249217712 -0.013834271146240367  0.
0.015347484405524104 -0.010960248304980437  0.
0.012046919645980033 -0.008630313037259007  0.
0.008850663353939135 -0.0068013124093451805  0.
0.005722539595939698 -0.005443315006339616  0.
0.0026321839761307376 -0.004538048047652883  0.
-0.0004477614881753606 -0.004077897630475668  0.
-0.003543818444546239 -0.004065420599452627  0.
-0.0066835450501158125 -0.004513313151205778  0.
-0.009897481791582539 -0.005444759361098676  0.
-0.013221363817328666 -0.006894079217274691  0.
-0.016698915812293706 -0.008907519953062886  0.
-0.02038554774448984 -0.011543867097172304  0.
-0.02435350574154018 -0.014874278442560557  0.
-0.02869919610416637 -0.018980040488121335  0.
-0.03355405412570938 -0.02394565907531724  0.
-0.039101194746071564 -0.02984148274618062  0.
-0.045601053933992365 -0.03668215553507644  0.
-0.05342144750535548 -0.0443253555506343  0.
0.06932805253802886 -0.06299570782437752  0.
0.06096965980685306 -0.05529701656135013  0.
0.05327580825129933 -0.047945007336376126  0.
0.04634297519803465 -0.041147388622995225  0.
0.04013546682556591 -0.0350436870878808  0.
0.03454065125516119 -0.029690936461009464  0.
0.029421882086378824 -0.025077274539729157  0.
0.024656596424595206 -0.02115571197047448  0.
0.02015093176533191 -0.017875438928394174  0.
0.015833835677684524 -0.015192095254654446  0.
0.011649887979144895 -0.01307064565754905  0.
0.007553821925889645 -0.011485856512929478  0.
0.0035066352313606734 -0.010422114452260134  0.
-0.0005272850900206913 -0.009873135234040846  0.
-0.004582482643170643 -0.009841757983784286  0.
-0.008694427032680968 -0.010339876435062208  0.
-0.012901518499075358 -0.01138845655101898  0.
-0.017247207011187943 -0.01301754387419688  0.
-0.021782438077283903 -0.015266059488784503  0.
-0.026568530587738396 -0.018181013384292052  0.
-0.03168067918896295 -0.021815546985466693  0.
-0.03721203963055389 -0.026224684586630045  0.
-0.04327819499410929 -0.03145690820369813  0.
-0.05002044662558083 -0.037537965970027946  0.
-0.05760130376613791 -0.04444038031099691  0.
-0.06616115870056137 -0.05202866743397661  0.
0.0817827722583862 -0.07239949604508648  0.
0.07292935778967886 -0.06471680460824514  0.
0.06452992902951626 -0.05739460715465514  0.
0.056704247350412684 -0.0505617690632581  0.
0.04947125399601758 -0.04432378465368437  0.
0.04278245790008621 -0.03874570475961993  0.
0.03655469793908497 -0.033850490721118495  0.
0.03069625973530944 -0.029629733486743724  0.
0.025122876802243385 -0.026059348680712493  0.
0.01976327789494068 -0.0231122906151938  0.
0.014557764598612346 -0.020764625221133832  0.
0.009455183687243964 -0.018998132542403  0.
0.0044100686610453865 -0.017801406368939853  0.
-0.0006198010818784285 -0.017170283464912405  0.
-0.005675527943352716 -0.017107973882976333  0.
-0.01079895081690915 -0.017625041190781184  0.
-0.016034479791150916 -0.018739228675075683  0.
-0.021430905896292922 -0.02047506297898075  0.
-0.02704329705608275 -0.022863060650967933  0.
-0.032934909378619995 -0.025938224081542144  0.
-0.039179052102054926 -0.029737386439732044  0.
-0.04586037611987113 -0.034294631898364576  0.
-0.05307453320209023 -0.039633725834425405  0.
-0.060923006198298206 -0.04575592948216714  0.
-0.06949389597499736 -0.052621625060752256  0.
-0.07879845621545677 -0.06012841274041753  0.
0.09419614863391004 -0.08242218267947432  0.
0.08472855374050414 -0.07473915696519369  0.
0.0755988040136062 -0.06744287276084625  0.
0.06692017403080927 -0.06061234511644239  0.
0.05873204395617199 -0.05432370930970372  0.
0.05101928147118922 -0.048634976115758365  0.
0.04373261969732817 -0.04358008715285844  0.
0.03680640054411777 -0.03917096739769521  0.
0.030171313882492366 -0.035404156174139514  0.
0.02376167042856817 -0.03226858449016532  0.
0.017517976770661987 -0.02975169321942692  0.
0.01138648753485437 -0.027842970402172425  0.
0.00531775907284024 -0.0265358673639364  0.
-0.0007350248063755941 -0.025828775110862238  0.
-0.006817732025158968 -0.02572545585676521  0.
-0.012976797806272611 -0.026235124714332248  0.
-0.019260735363577586 -0.027372216585690546  0.
-0.02572152537125516 -0.02915581255260527  0.
-0.03241591409927951 -0.0316086069350779  0.
-0.03940642547585916 -0.034755196539768156  0.
-0.046761887114425284 -0.03861942985667614  0.
-0.05455670470089942 -0.043220382115618024  0.
-0.06286757068176477 -0.04856656206073356  0.
-0.07176424157130752 -0.05464807254274724  0.
-0.08128642358232874 -0.06142782196433636  0.
-0.09138634477923042 -0.06883867467767434  0.
0.10655530649406865 -0.09320793816661484  0.
0.09638414438272658 -0.08551841492998373  0.
0.08649012656338217 -0.07824235828143103  0.
0.07696863118020239 -0.07142766987545006  0.
0.06786240509714223 -0.06512821953874304  0.
0.059172037038195575 -0.05939162940007527  0.
0.050868288471837914 -0.05425270265716304  0.
0.042903955256099385 -0.04973215181052033  0.
0.03522326824622963 -0.04583878295289566  0.
0.027768346615968723 -0.04257347726974431  0.
0.02048281427477633 -0.03993335949042857  0.
0.013313001784105376 -0.037915025070487024  0.
0.00620777125240332 -0.03651665742904552  0.
-0.0008823112002077381 -0.035739267931056175  0.
-0.008006085537116119 -0.035587322248106776  0.
-0.015212866045456852 -0.0360689264514478  0.
-0.0225535515044599 -0.03719562090404255  0.
-0.03008156492635412 -0.038981792596601096  0.
-0.0378535981308614 -0.04144364398235602  0.
-0.045929892372745355 -0.04459759370913653  0.
-0.054373812055223375 -0.04845800361739445  0.
-0.06324989676677856 -0.053034063630460496  0.
-0.07261919419593947 -0.05832589418831228  0.
-0.0825291052576994 -0.06432033849465695  0.
-0.09299233291904584 -0.07098856603033588  0.
-0.10394428860609689 -0.0782923748594683  0.
0.1188386182184986 -0.10484786187161452  0.
0.10789928657384844 -0.09715028674599695  0.
0.09720850316772171 -0.08988943004163664  0.
0.08684096584545328 -0.08309397755074518  0.
0.07683468319792916 -0.07680176610773393  0.
0.0671959621863966 -0.07105053380466643  0.
0.05790649599408478 -0.06587200660762609  0.
0.04893111159211358 -0.06128951153238479  0.
0.04022443226656528 -0.05731805177546297  0.
0.031736000722705944 -0.0539660182446159  0.
0.023413754878688325 -0.051237612896576336  0.
0.015205810740434537 -0.049135144725350945  0.
0.007061098126480628 -0.04766085302298318  0.
-0.0010707592643491883 -0.04681812480956523  0.
-0.009240000493203898 -0.04661217949906463  0.
-0.017497330680122002 -0.04705032355235392  0.
-0.0258946221484756 -0.0481418082852103  0.
-0.03448543168117111 -0.049897321770448005  0.
-0.04332528263816923 -0.0523280969132872  0.
-0.052471409733568584 -0.05544458605816026  0.
-0.06198174701293134 -0.05925471252186774  0.
-0.07191240807445862 -0.06376170826493259  0.
-0.08231276262901657 -0.06896185159772084  0.
-0.0932161773749206 -0.07484288176269784  0.
-0.10462347344416598 -0.0813852791994732  0.
-0.11647531500139695 -0.08857172189074139  0.
0.13102269169867548 -0.11739928485850011  0.
0.11926979274551074 -0.10969397145974072  0.
0.10775500163307068 -0.10244425796938528  0.
0.09653337453695117 -0.09566709038708827  0.
0.08563482879857652 -0.08938905559423312  0.
0.07506590089070507 -0.08363961726981411  0.
0.06481347044865336 -0.0784462221252009  0.
0.05484967246435786 -0.07383174691123981  0.
0.0451364650538362 -0.0698136379040752  0.
0.03562947867720157 -0.06640435979483506  0.
0.026280973259961548 -0.06361261995654442  0.
0.017041651425812696 -0.061444780497235604  0.
0.007861654095159548 -0.05990617739631824  0.
-0.0013090923890745668 -0.05900212134588416  0.
-0.010520989067423419 -0.05873852097798254  0.
-0.019824955768082422 -0.05912215451151678  0.
-0.029272765902235376 -0.0601605923609503  0.
-0.03891720371671406 -0.06186180650234083  0.
-0.04881199214262497 -0.06423347590744391  0.
-0.05901118531972167 -0.06728198938379376  0.
-0.06956786917504998 -0.0710112298554713  0.
-0.08053153477814028 -0.07542124873566673  0.
-0.09194357738290009 -0.08050724789438601  0.
-0.10382976583914888 -0.08625967210200637  0.
-0.11618856692115784 -0.09266722662635607  0.
-0.12897541070799945 -0.09972632696877391  0.
0.14308525167128042 -0.1308972836709305  0.
0.1304878098005712 -0.1231850843118167  0.
0.11812790379107527 -0.11594322048981313  0.
0.10604344835690319 -0.10918155968092766  0.
0.09425538772455923 -0.10291890603537401  0.
0.08276766744418838 -0.09717817195746517  0.
0.07156885225418759 -0.0919824995650921  0.
0.060635122394135536 -0.08735293147319816  0.
0.049933298448256086 -0.08330720662837185  0.
0.039423625980644875 -0.07985954673002046  0.
0.029062149346389864 -0.07702113071527833  0.
0.018802324461912677 -0.07480084450637252  0.
0.008596100874213017 -0.07320612023227029  0.
-0.0016054855004501679 -0.07224365132208739  0.
-0.011852124345331613 -0.07191988273198899  0.
-0.022194102648305073 -0.07224125452923313  0.
-0.03268234647118448 -0.07321417198098068  0.
-0.04336829807517642 -0.07484473392641573  0.
-0.05430359651913846 -0.07713824144565021  0.
-0.06553927124641735 -0.08009851713081417  0.
-0.07712437257694983 -0.08372715665882205  0.
-0.08910352884444774 -0.08802286156331353  0.
-0.10151319919618003 -0.09298127622628238  0.
-0.11437605716607065 -0.09859601440180805  0.
-0.12769353058499328 -0.10486219069376435  0.
-0.14143829744343664 -0.11178447829380843  0.
0.15500626595969608 -0.14536199955521625  0.
0.14154398328508752 -0.1376436878519689  0.
0.12832366339863885 -0.1304068777807082  0.
0.11536891595137502 -0.12365724180089273  0.
0.10269205139366637 -0.11740824060271442  0.
0.09029316024010989 -0.11167774047720543  0.
0.0781604551008663 -0.10648501393160273  0.
0.06627200240918744 -0.1018487666426971  0.
0.05459764173486593 -0.0977858825953374  0.
0.04310093479440385 -0.09431089464881552  0.
0.03174100823857211 -0.09143601868191559  0.
0.020473892463980327 -0.0891714552688589  0.
0.00925355060878255 -0.08752585335303188  0.
-0.0019674338616455364 -0.08650676017001932  0.
-0.013237496692191061 -0.08612095910363744  0.
-0.024605745047338805 -0.08637465919010245  0.
-0.03612179010746887 -0.0872734918362491  0.
-0.04783542702330538 -0.08882234090777094  0.
-0.059796163559150135 -0.09102503125119789  0.
-0.07205233224640746 -0.09388391808135937  0.
-0.08464979302316486 -0.09739951002021865  0.
-0.09762982562416908 -0.10157027562735503  0.
-0.11102622923450316 -0.10639300781314384  0.
-0.1248614486569251 -0.11186426176360748  0.
-0.13914233936253162 -0.11798371933044069  0.
-0.15385780429591078 -0.12476045932609098  0.
0.16676818255280518 -0.1608033578371506  0.
0.15242862566811619 -0.1530793741676309  0.
0.1383376466527072 -0.14584511382514445  0.
0.1245072228202388 -0.1391038210909676  0.
0.1109419106114882 -0.13286529869100147  0.
0.09763756510426869 -0.1271435773094579  0.
0.08458094428508205 -0.12195462836838292  0.
0.07175062954667907 -0.1173147623705951  0.
0.059118171456698405 -0.11323945970015585  0.
0.04664940727800168 -0.10974272081353645  0.
0.034305861546038395 -0.10683686006632982  0.
0.022045809473361763 -0.10453252429551568  0.
0.009825191844645554 -0.10283889088852659  0.
-0.002401692353717184 -0.10176390790617582  0.
-0.014681747703630227 -0.10131449506402833  0.
-0.027062602444821844 -0.1014966728824726  0.
-0.03959231066021681 -0.10231556987862714  0.
-0.05231891068181473 -0.10377533084974848  0.
-0.0652898799502085 -0.10587894940578262  0.
-0.07855124885004834 -0.10862806828029023  0.
-0.09214645672284685 -0.11202287410812721  0.
-0.10611463222579355 -0.11606221511541912  0.
-0.12048849058416013 -0.12074424497068711  0.
-0.135291876606145 -0.1260679398977468  0.
-0.1505377803162372 -0.13203597918978266  0.
-0.16622885866699774 -0.13865932003931328  0.
0.1783558780204162 -0.17722431322899906  0.
0.16313239887055417 -0.16949468891772954  0.
0.14816472488323412 -0.16226063135454669  0.
0.1334555207281994 -0.15552402429333376  0.
0.11900264665701153 -0.14929216285585492  0.
0.10479782078235347 -0.1435761752568963  0.
0.09082582654009656 -0.13838929092762628  0.
0.07706493184837575 -0.13374557599760567  0.
0.06348750593416358 -0.12965890414988332  0.
0.050060872529733604 -0.12614229285789474  0.
0.036748360212689755 -0.1232075815678347  0.
0.023510118969018612 -0.12086528349324001  0.
0.010303902225050296 -0.11912460904201186  0.
-0.0029142840108528087 -0.11799355526007944  0.
-0.01618972798922518 -0.11747899942286645  0.
-0.02956846680865929 -0.1175867745651173  0.
-0.043096923016577894 -0.1183216777919759  0.
-0.05682140361750017 -0.11968743424129431  0.
-0.07078754041114067 -0.1216866360461753  0.
-0.08503945900796833 -0.1243206948283365  0.
-0.09961882438668787 -0.12758991896450309  0.
-0.11456349939316393 -0.13149381299733107  0.
-0.12990611980107217 -0.13603182877544812  0.
-0.1456726981636246 -0.14120477358796707  0.
-0.1618820826617028 -0.1470171109568085  0.
-0.17854787108933787 -0.15348012660985905  0.
0.18975631481814448 -0.1946228687047152  0.
0.17364653598461555 -0.18688724094521295  0.
0.15779956013172308 -0.1796511198613681  0.
0.14221066589276024 -0.17291566148057022  0.
0.12687206885178018 -0.16668643129485483  0.
0.11177168688944478 -0.16097235727361425  0.
0.09689216092053181 -0.15578442082937904  0.
0.0822109805218095 -0.1511346784677083  0.
0.06770074786429917 -0.14703538517624393  0.
0.05332969710234544 -0.14349837109696356  0.
0.03906247652289673 -0.14053467921358911  0.
0.024860756487154464 -0.1381543283656178  0.
0.010683881179745332 -0.13636622997222825  0.
-0.003510548690920032 -0.13517817726902767  0.
-0.017766246442133014 -0.13459686219487157  0.
-0.03212767500889758 -0.13462790941483194  0.
-0.04663966626240312 -0.13527588173440291  0.
-0.061346907174602526 -0.13654428121901183  0.
-0.07629340678682789 -0.13843556103909227  0.
-0.09152175030684151 -0.14095117894180675  0.
-0.10707233991324332 -0.14409178449545934  0.
-0.12298238727737754 -0.14785760509471985  0.
-0.1392850238289137 -0.15224919495847494  0.
-0.15600864413270948 -0.15726864528103146  0.
-0.17317720495486685 -0.16292132939297582  0.
-0.19081262330523582 -0.16921798768873314  0.
0.20095830640689114 -0.21299362252248105  0.
0.183963012956677 -0.20525128522913397  0.
0.16723688078749566 -0.19801087672809434  0.
0.1507693609427517 -0.19127318869714555  0.
0.13454798389625486 -0.1850425789752274  0.
0.1185573023534437 -0.1793262960901917  0.
0.10277785003074459 -0.1741334871115011  0.
0.0871861101668312 -0.1694744530515033  0.
0.07175455069614928 -0.16535991700346997  0.
0.05645190853089213 -0.16180046566273007  0.
0.04124377161722055 -0.15880618989158388  0.
0.02609301659526051 -0.15638640924946134  0.
0.010960342618847062 -0.15454952979208558  0.
-0.0041952202403235375 -0.15330297187065814  0.
-0.01941592701988056 -0.15265313654812582  0.
-0.0347447645809765 -0.15260541067019617  0.
-0.05022508670742881 -0.15316416839197727  0.
-0.06590011922074325 -0.1543327953862242  0.
-0.08181247909915708 -0.15611374636501774  0.
-0.09800352604333819 -0.15850865865663677  0.
-0.11451278561864393 -0.16151859486747366  0.
-0.13137721726277318 -0.16514445071286452  0.
-0.14863072240716158 -0.16938763968519827  0.
-0.16630396715625398 -0.17425107883598906  0.
-0.18442510544396695 -0.17974045721146759  0.
-0.20302215684230895 -0.18586553776491085  0.
0.2119522191890574 -0.23232876249755538  0.
0.19407455170714955 -0.22457873120352423  0.
0.17647160181489097 -0.21733184001038242  0.
0.15912823361320702 -0.21058871481721209  0.
0.14202812763294922 -0.2043528533384757  0.
0.12515292617889695 -0.1986302075158266  0.
0.10848120023727936 -0.19342842619234102  0.
0.09198834817120914 -0.18875629692602372  0.
0.07564648796131103 -0.18462314245427083  0.
0.05942457923491676 -0.18103833463864624  0.
0.0432888593662311 -0.17801096127274618  0.
0.027203145228427473 -0.17554954322226715  0.
0.011129264994370796 -0.1736618653759282  0.
-0.004972507094763172 -0.17235487087277812  0.
-0.021143122783770372 -0.17163459725727787  0.
-0.03742423549424474 -0.17150616327968987  0.
-0.053857871854523225 -0.1719737668378922  0.
-0.07048597522640798 -0.17304072206157614  0.
-0.0873499901535968 -0.17470954190364488  0.
-0.10449031175577911 -0.17698208143501198  0.
-0.12194586854903416 -0.17985979771612653  0.
-0.13975360562575972 -0.18334413906711397  0.
-0.15794827248184087 -0.18743713619022018  0.
-0.17656252994453997 -0.1921421730156863  0.
-0.19562783031929562 -0.19746487397242127  0.
-0.2151765299400241 -0.20341386501776193  0.
0.22272970619975968 -0.25261874504139586  0.
0.20397457235172237 -0.24485982300106413  0.
0.18549888523912977 -0.23760428319601548  0.
0.16728389983846725 -0.2308526851873968  0.
0.14931015303804243 -0.22460789631370107  0.
0.1315568095983015 -0.21887485199720783  0.
0.11400067311132286 -0.21365997109247672  0.
0.09661606893028583 -0.20897074405302657  0.
0.07937465161014888 -0.2048152387648976  0.
0.06224541738066515 -0.20120168544630349  0.
0.04519503608492045 -0.19813818072970557  0.
0.028188046070356115 -0.1956324155802253  0.
0.011187200228427454 -0.19369149996569623  0.
-0.005846167716586959 -0.19232184251118495  0.
-0.02295187464148151 -0.19152907089558363  0.
-0.040170401837889884 -0.1913180085121624  0.
-0.05754261426203485 -0.19169266946792307  0.
-0.07510935249883917 -0.19265630137165232  0.
-0.09291108675451575 -0.19421147825705448  0.
-0.11098745696237335 -0.19636025246593086  0.
-0.12937698900999894 -0.19910440700704535  0.
-0.14811673813553153 -0.2024458040486418  0.
-0.16724226231722847 -0.20638687462411967  0.
-0.18678787649848372 -0.2109312016306935  0.
-0.20678753174777897 -0.21608411779274408  0.
-0.2272765718882906 -0.2218531100034187  0.
0.2332835441779818 -0.27385289726563544  0.
0.21365718354488028 -0.26608373346613706  0.
0.19431421801127885 -0.2588174153271514  0.
0.17523305943659395 -0.25205447670901376  0.
0.15639168747449167 -0.24579730506336353  0.
0.13776718058788978 -0.24005002362043215  0.
0.11933478621450802 -0.2348180329597837  0.
0.10106781988214293 -0.23010771287710327  0.
0.0829374263233243 -0.2259260191196297  0.
0.06491251981025428 -0.22228013329652538  0.
0.04696004349711377 -0.21917720787181438  0.
0.029045081123965963 -0.2166241145474226  0.
0.01113113236029806 -0.21462727511360766  0.
-0.006819582143267018 -0.21319253882509354  0.
-0.024845910491377028 -0.21232509684465842  0.
-0.04298732471178989 -0.21202945448028448  0.
-0.06128369236238642 -0.21230942381943024  0.
-0.07977492024846826 -0.21316816736245028  0.
-0.09850067620247693 -0.21460829133564446  0.
-0.1175000088045412 -0.21663199252245413  0.
-0.13681117104471618 -0.2192412887047222  0.
-0.15647137763128505 -0.22243831679888634  0.
-0.17651689334310708 -0.2262257258747989  0.
-0.19698334433982032 -0.23060710567244502  0.
-0.21790651305707814 -0.23558737408238997  0.
-0.23932373379457766 -0.2411729577878188  0.
0.24360737333403534 -0.29601960722197895  0.
0.22311704298645246 -0.28823874999418314  0.
0.20291335433385094 -0.2809595714236153  0.
0.18297247478109716 -0.2741825875008284  0.
0.1632703077354896 -0.26790980357483746  0.
0.14378218791301453 -0.26214467980235956  0.
0.12448201371880611 -0.2568917645947998  0.
0.10534218008672364 -0.25215648421285874  0.
0.08633331801958563 -0.2479448138043498  0.
0.06742418887457266 -0.24426298454603335  0.
0.04858189453028061 -0.24111726894067947  0.
0.02977192473958517 -0.23851375393985727  0.
0.010958375020052376 -0.23645818491086  0.
-0.007895801611486838 -0.2349558482009108  0.
-0.026828639036706653 -0.2340114858624094  0.
-0.04587875396124277 -0.2336292672168944  0.
-0.06508517005548377 -0.2338127795299463  0.
-0.08448701230700012 -0.23456506936496885  0.
-0.10412329125685077 -0.23588873005089966  0.
-0.124032589743283 -0.2377860354999612  0.
-0.14425297054801622 -0.24025914172539437  0.
-0.16482181081317385 -0.24331033321808818  0.
-0.18577595521559354 -0.24694233051231176  0.
-0.20715202920991216 -0.2511585972783692  0.
-0.22898711419610424 -0.2559635806263676  0.
-0.25131981933406283 -0.2613627596098297  0.
0.25369559167346367 -0.3191066456307219  0.
0.23234933097581043 -0.3113125862174273  0.
0.21129234719395099 -0.3040185242420627  0.
0.19049903038119867 -0.2972249480493623  0.
0.16994359925814528 -0.29093354393911736  0.
0.1495999385849623 -0.285147218074515  0.
0.12944079014902843 -0.27986979665831513  0.
0.10943772770255686 -0.27510588294268323  0.
0.08956089026750852 -0.27086058831250465  0.
0.06977884821496426 -0.2671392885152694  0.
0.05005878137246532 -0.263947446390346  0.
0.0303664767616828 -0.2612904106757448  0.
0.010666500309806409 -0.25917327638098536  0.
-0.009077596933275206 -0.2576007766640951  0.
-0.028903172885933387 -0.2565772015054505  0.
-0.04884812820386974 -0.2561063708843429  0.
-0.06895078034131243 -0.2561916237494812  0.
-0.0892496047470284 -0.2568358552492038  0.
-0.10978307442966484 -0.25804159485513783  0.
-0.1305894012606444 -0.25981112327332584  0.
-0.1517065076994984 -0.2621466430009439  0.
-0.17317191045761318 -0.26505047635507795  0.
-0.19502290480406 -0.2685253013102049  0.
-0.21729684930560328 -0.27257436661027556  0.
-0.24003171468916215 -0.27720163297380657  0.
-0.26326688469725573 -0.28241175099305743  0.
0.2635432819621331 -0.34310146231789707  0.
0.24134973402969578 -0.33529266816606895  0.
0.21944757611880028 -0.3279817683060043  0.
0.19780978580408096 -0.32116920485413697  0.
0.17640921438097498 -0.3148563850013479  0.
0.15521854520363498 -0.3090457409043242  0.
0.1342095363526091 -0.3037404781335301  0.
0.11335304040946234 -0.2989444843508015  0.
0.09261874053168596 -0.29466210851711383  0.
0.07197500026899582 -0.29089795846743005  0.
0.051389021946461555 -0.28765675714966565  0.
0.03082680617477181 -0.28494316611194437  0.
0.010253286781131049 -0.2827616632521264  0.
-0.010367501235913325 -0.28111644590584645  0.
-0.03107235999899943 -0.2800113553733346  0.
-0.05189859619442436 -0.27944985297295016  0.
-0.07288394086875218 -0.2794350074679601  0.
-0.09406633228499946 -0.27996952725615637  0.
-0.11548380311579828 -0.2810558275819737  0.
-0.13717426491552695 -0.2826961293972226  0.
-0.15917552780594266 -0.28489260000499744  0.
-0.18152521321291126 -0.2876475085937361  0.
-0.20426094806629524 -0.2909634041224294  0.
-0.22742060710516815 -0.29484326291702484  0.
-0.25104274438527796 -0.2992905659674388  0.
-0.2751671791460402 -0.3043092443897638  0.
0.2731459857633917 -0.36799098587745244  0.
0.25011427395439756 -0.3601659336973466  0.
0.22737562503149403 -0.35283632105873763  0.
0.20490189030872571 -0.3460025234207295  0.
0.18266481010521374 -0.33966569430088445  0.
0.1606360747034702 -0.3338278510390567  0.
0.13878661052274535 -0.32849165818525705  0.
0.11708664413146731 -0.3236603757766431  0.
0.09550544591946021 -0.31933767691367476  0.
0.07401117143550846 -0.3155274797161815  0.
0.05257100881721711 -0.3122338328346804  0.
0.031151108795143056 -0.3094607615738108  0.
0.009716690565974583 -0.3072121625887202  0.
-0.01176782200362462 -0.3054917186623587  0.
-0.033338777361688075 -0.3043028298344388  0.
-0.05503299268290645 -0.30364859292371443  0.
-0.0768877144943663 -0.303531787529362  0.
-0.09894043749772874 -0.30395490291267796  0.
-0.12122883189302817 -0.3049201940261862  0.
-0.14379056116249977 -0.3064297629163697  0.
-0.1666633371589028 -0.3084856722239903  0.
-0.1898848479503007 -0.3110900649595501  0.
-0.21349294962974422 -0.3142452969658952  0.
-0.2375258625930566 -0.3179540363803852  0.
-0.26202250205107835 -0.32221930173493785  0.
-0.2870228990493379 -0.32704439872643304  0.
0.28249980446133277 -0.39376216954602006  0.
0.25863942545788043 -0.3859193626975005  0.
0.23507341500949322 -0.37856924743890474  0.
0.2117727226871193 -0.3717121111303277  0.
0.1887081852375671 -0.3653488693544404  0.
0.16585067356568992 -0.3594811686090169  0.
0.14317041423496749 -0.35411119492728316  0.
0.12063709532024544 -0.3492416525081558  0.
0.09821961983212601 -0.3448756117505331  0.
0.07588594348204457 -0.3410163695203875  0.
0.05360321731149848 -0.33766735979235374  0.
0.031337694825531795 -0.3348320198962635  0.
0.009054815089036026 -0.3325137009460009  0.
-0.013280687118437022 -0.33071559392750643  0.
-0.03570479175585945 -0.3294406674602945  0.
-0.058253914137737145 -0.32869165096231184  0.
-0.08096490132812838 -0.32847101933517003  0.
-0.10387488129258834 -0.3287810147028669  0.
-0.12702122350368503 -0.329623691797132  0.
-0.15044138184222733 -0.3310009834834211  0.
-0.17417297562631423 -0.3329147906593097  0.
-0.19825372335964955 -0.3353670729174683  0.
-0.22272162598218878 -0.33835994624735255  0.
-0.24761511945724163 -0.3418957490998446  0.
-0.2729733228203329 -0.3459770579050305  0.
-0.2988363374829407 -0.35060662773188844  0.
0.2916011535170422 -0.42040155424366854  0.
0.2669219106656351 -0.41253954559928957  0.
0.2425380368989698 -0.4051672308146984  0.
0.21841975809292896 -0.39828479067876565  0.
0.1945371751429164 -0.39189291280725574  0.
0.17086048389634184 -0.38599290607318165  0.
0.14735932422484008 -0.380586527408158  0.
0.12400292445183674 -0.37567598377418865  0.
0.10075986502641507 -0.3712638043281504  0.
0.0775979156597773 -0.36735272383995354  0.
0.05448417740447029 -0.36394561464597774  0.
0.03138497194126634 -0.3610453703944911  0.
0.008265906967842483 -0.3586548306140585  0.
-0.014908034791528541 -0.35677671726044974  0.
-0.03817253473597091 -0.35541357872524193  0.
-0.0615636786774157 -0.35456777657522226  0.
-0.08511798414162458 -0.35424146903796394  0.
-0.10887227460800872 -0.35443662802903064  0.