<?xml version="1.0"?>
<VTKFile type="UnstructuredGrid" version="0.1" byte_order="LittleEndian" compressor="vtkZLibDataCompressor">
<UnstructuredGrid>
<Piece NumberOfPoints="2626" NumberOfCells="5000">
<PointData>
<DataArray type="Float64" Name="displacement" NumberOfComponents="3" format="ascii" >
0.0 0.0  0.
0.0 0.0  0.
0.0 0.0  0.
0.0 0.0  0.
0.0 0.0  0.
0.0 0.0  0.
0.0 0.0  0.
0.0 0.0  0.
0.0 0.0  0.
0.0 0.0  0.
0.0 0.0  0.
0.0 0.0  0.
0.0 0.0  0.
0.0 0.0  0.
0.0 0.0  0.
0.0 0.0  0.
0.0 0.0  0.
0.0 0.0  0.
0.0 0.0  0.
0.0 0.0  0.
0.0 0.0  0.
0.0 0.0  0.
0.0 0.0  0.
0.0 0.0  0.
0.0 0.0  0.
0.0 0.0  0.
0.009404314219514672 -0.012258919500234068  0.
0.005367967149299923 -0.007499272926573578  0.
0.004286090007783444 -0.005125092222921806  0.
0.0036420741814809495 -0.0035236485165313497  0.
0.0031402702603669937 -0.0023440221038909643  0.
0.0027038216804269356 -0.001438069331753072  0.
0.002303535658908758 -0.0007266635620221903  0.
0.0019255784483100979 -0.00016254592334583184  0.
0.001562330314502285 0.00028434797836432164  0.
0.0012090821572686085 0.0006338345529266474  0.
0.000862627527027769 0.0008991304469126634  0.
0.0005205733986735871 0.0010888914235359381  0.
0.00018096548153515802 0.0012083688834785037  0.
-0.0001579458396442908 0.0012600368621108451  0.
-0.0004978836102101694 0.001243854188921622  0.
-0.0008407088579123314 0.0011572229035407885  0.
-0.0011886264677096131 0.0009946296302709777  0.
-0.0015444824229549174 0.0007468735785645025  0.
-0.0019122559471020175 0.0003996695195115152  0.
-0.0022979326305030395 -6.878235604463035e-05  0.
-0.002711167729026354 -0.000692046952459015  0.
-0.003168660873287668 -0.0015230334369873474  0.
-0.003701661869185056 -0.002647923954739399  0.
-0.004374982365269237 -0.004212618638911409  0.
-0.005345522849341413 -0.0064743236511523895  0.
-0.00706812652718944 -0.009911990834819605  0.
0.016941468089748855 -0.01872239656395652  0.
0.012610516822167512 -0.014254408171258389  0.
0.009888310233329596 -0.010444313985157626  0.
0.008260091621476832 -0.00769067629207155  0.
0.007034603794372946 -0.0055803001623959386  0.
0.00600365559769007 -0.0039149365928669595  0.
0.0050832464155941585 -0.00258206336564812  0.
0.004231963086938255 -0.001510960950546937  0.
0.003426396681565568 -0.0006546396151887922  0.
0.0026518753790928606 1.8986094799945313e-05  0.
0.001898368017858095 0.000531893071019129  0.
0.0011584211199269254 0.0008987280246720942  0.
0.0004260078288241139 0.0011284316298473026  0.
-0.0003041997662179702 0.0012251388401856498  0.
-0.0010373752940784815 0.0011885611990535398  0.
-0.0017790235130275282 0.0010139359068763933  0.
-0.00253553844525287 0.0006915486710023896  0.
-0.0033149432571665896 0.0002057643873368906  0.
-0.0041280056609138815 -0.000466569337343013  0.
-0.004990036076839049 -0.0013585507481009113  0.
-0.00592398075586037 -0.0025167713566056817  0.
-0.006966037693114002 -0.004006243237389443  0.
-0.008176700900612139 -0.005916670333795234  0.
-0.009665034814289793 -0.008368399486770319  0.
-0.011651809266556214 -0.011509151131800505  0.
-0.014677222965720604 -0.015455692810550705  0.
0.023909287999677366 -0.023845879881676017  0.
0.019526557755139465 -0.019555478409144463  0.
0.016106930024577786 -0.015559830602731676  0.
0.013509998483164583 -0.012158919889424833  0.
0.011484621359034356 -0.00940577230682626  0.
0.009775657419573243 -0.007164751728919266  0.
0.008257635171524192 -0.0053336231367537654  0.
0.006863297757390061 -0.003840462869122822  0.
0.0055526355422866715 -0.0026341881859086253  0.
0.004299645113908635 -0.001678298278589121  0.
0.0030860663204919127 -0.0009469794195717764  0.
0.0018980773994341695 -0.00042264823750795  0.
0.0007243818583949394 -9.443108109700527e-05  0.
-0.00044503237717296966 4.2722076805631024e-05  0.
-0.0016198256649864518 -1.155196731801285e-05  0.
-0.0028101169951131686 -0.00026301449166346005  0.
-0.004027359274869971 -0.0007231667555362993  0.
-0.005285408234357501 -0.00140994342942855  0.
-0.006601994226055288 -0.002348754462853695  0.
-0.008000876193523672 -0.003573828260470512  0.
-0.009515191354583995 -0.005129707015082306  0.
-0.01119289216106964 -0.0070723967209655085  0.
-0.013106187223223096 -0.00946889169976245  0.
-0.015369417250091126 -0.012391520028680048  0.
-0.018177327847278296 -0.01589662179294286  0.
-0.021900367378979237 -0.01995107303477715  0.
0.030675926858804662 -0.028567433900940215  0.
0.026199523245602072 -0.024359740307786846  0.
0.022323484700967098 -0.020355829222769784  0.
0.01904619644162288 -0.01674819606870739  0.
0.016274993919455364 -0.013631516506722828  0.
0.013875540227694248 -0.011003983828998726  0.
0.011725895074025418 -0.008808132655394227  0.
0.009747334266029613 -0.006989098870858795  0.
0.007888526464618267 -0.005502624814993373  0.
0.00611413191245954 -0.004314744333383865  0.
0.004398308455089111 -0.0034003222618526484  0.
0.002720921215063197 -0.002741713492513264  0.
0.001065203018356696 -0.0023277810009278916  0.
-0.0005838287908186303 -0.0021532542937113893  0.
-0.0022405836212129587 -0.0022183858724535263  0.
-0.0039199317103713735 -0.0025288644230274486  0.
-0.005638266747762931 -0.003095937969665016  0.
-0.007414705852430855 -0.003936697222276663  0.
-0.009272600555539447 -0.00507443306252429  0.
-0.011241534998310685 -0.006538894246451496  0.
-0.013360116092172166 -0.008366133052746437  0.
-0.015679950890112655 -0.010597261674769412  0.
-0.01827154832936595 -0.013274787048011915  0.
-0.021233281563911507 -0.016433558134213943  0.
-0.024704707660422147 -0.020079423983858695  0.
-0.028879276137013087 -0.02413830058154665  0.
0.03737127744088615 -0.03327639961512805  0.
0.032713260667646626 -0.02910649482792949  0.
0.02844684274990531 -0.025127550261141447  0.
0.024622484927563703 -0.021459577221255702  0.
0.021217430726167694 -0.01818287015044775  0.
0.01816526899551966 -0.015329568844251532  0.
0.015385910020146458 -0.012891262051082994  0.
0.012807898149034849 -0.010838934949809946  0.
0.010377204675676611 -0.009141893276808165  0.
0.008053359435507673 -0.007773513928489818  0.
0.005805091231564113 -0.006712693756429084  0.
0.0036070933779947445 -0.005943972082944964  0.
0.0014377653901502345 -0.005457313238447633  0.
-0.0007224331483941881 -0.005247850076385201  0.
-0.002892291753685468 -0.005315689986805807  0.
-0.00509096121880654 -0.005665804336016626  0.
-0.0073390570926446415 -0.006307971982196356  0.
-0.009659817396042714 -0.007256720547620128  0.
-0.012080433439368973 -0.008531157922017456  0.
-0.014633615376409226 -0.010154497047526807  0.
-0.017359499924971263 -0.01215296853935914  0.
-0.020307878417423087 -0.014553539625025112  0.
-0.023540616784437692 -0.017379474628116762  0.
-0.02713334219636993 -0.02064192046982326  0.
-0.03117251353727762 -0.024324313179423147  0.
-0.035730163268125184 -0.02835516797691701  0.
0.044039025639230615 -0.03818113937728904  0.
0.039116647689911827 -0.034029326785083094  0.
0.03446707211486617 -0.03007962366415996  0.
0.030154432689347366 -0.02640546798553167  0.
0.026186922540923415 -0.023066768577086144  0.
0.022534790204969162 -0.02009990363245423  0.
0.01914874604651735 -0.017516594125959076  0.
0.015974979693587646 -0.015310162932695917  0.
0.012964519906755545 -0.013464887463065874  0.
0.010076442173389285 -0.011963574047624737  0.
0.0072768553031575135 -0.010790993774132288  0.
0.004537035773678405 -0.009935268986648985  0.
0.001831724361431189 -0.009388400385534037  0.
-0.0008622966638042213 -0.009146424018702706  0.
-0.003567420581099649 -0.0092094107480889  0.
-0.0063062627850997855 -0.009581389199052432  0.
-0.009102681581671046 -0.010270192718807539  0.
-0.011982777190330307 -0.011287191719568938  0.
-0.014975933304537331 -0.012646820106434297  0.
-0.018115866919747727 -0.01436573046573083  0.
-0.021441653950195982 -0.01646135101180071  0.
-0.02499844097632698 -0.018949443720836266  0.
-0.028837255218561543 -0.021840125312497786  0.
-0.03301213776223531 -0.025131547360919743  0.
-0.03756955582727064 -0.028800542548020506  0.
-0.042514029204930276 -0.03279190857140494  0.
0.050688241083145735 -0.04340536160151778  0.
0.045435355913309376 -0.039264046331935566  0.
0.04038967910420067 -0.035341674278570295  0.
0.035612172379874005 -0.03168234226685553  0.
0.03112273365215508 -0.02832863350813702  0.
0.026910715855660815 -0.02531264206637426  0.
0.022946337856927672 -0.02265238904714483  0.
0.01919079223902671 -0.020352980801841326  0.
0.015603606170977261 -0.018410538305954696  0.
0.012146860006154206 -0.0168168233704408  0.
0.008786626432017785 -0.015562832403816208  0.
0.0054926209024261305 -0.01464079803295432  0.
0.0022373013246048045 -0.014045222563148132  0.
-0.0010051312183371292 -0.013773368074607165  0.
-0.0042597087736462305 -0.013825441115453353  0.
-0.0075515652647178 -0.014204585319120727  0.
-0.01090678870247379 -0.01491670823147509  0.
-0.014353199605447108 -0.015970129165595662  0.
-0.017921075134597713 -0.01737498805313273  0.
-0.0216437165694528 -0.01914230074748585  0.
-0.025557751348605277 -0.021282527524718483  0.
-0.029702753296151987 -0.02380343089605642  0.
-0.03411946282229878 -0.02670703137260353  0.
-0.038844793411949935 -0.0299855431644637  0.
-0.043899436366259315 -0.033616911354257414  0.
-0.04925778385828406 -0.037563503380224954  0.
0.057314089771266286 -0.0490258912713038  0.
0.051681312670047365 -0.0448931607584834  0.
0.04622143653066095 -0.04099552273591984  0.
0.040985703107155894 -0.03735885478500885  0.
0.035996097453578964 -0.03401270560309458  0.
0.0312510608699314 -0.03098306242886904  0.
0.02673238708910743 -0.028288423991328502  0.
0.022411942023087206 -0.025939008205813262  0.
0.01825705526659784 -0.023938038862456778  0.
0.01423424556527676 -0.022284110924476713  0.
0.010311293630948059 -0.020973652045332372  0.
0.006457897524516622 -0.0200027996932444  0.
0.002645521214419869 -0.01936859326168339  0.
-0.0011531202995543435 -0.019069643863001754  0.
-0.004964720346969522 -0.01910645032424648  0.
-0.008816006303558705 -0.019481466664133883  0.
-0.01273437750949033 -0.02019895767116322  0.
-0.016748443916468177 -0.021264650638614557  0.
-0.02088845385337924 -0.02268515467982067  0.
-0.025186467485062654 -0.024467082972981117  0.
-0.029676143663302807 -0.026615826952168374  0.
-0.03439170063193763 -0.02913389625190643  0.
-0.03936540859885741 -0.03201886545768907  0.
-0.04462216126166137 -0.035261183037221484  0.
-0.050168395223125245 -0.03884293900610225  0.
-0.055970363140950066 -0.04274099454655432  0.
0.06390670298009409 -0.05509115699295077  0.
0.05785860555718139 -0.05096762168553129  0.
0.051967219877562816 -0.047092670700446766  0.
0.046272406610604694 -0.043481030617331544  0.
0.04079366323845069 -0.04015293949231612  0.
0.035532848819934564 -0.037128645610818294  0.
0.030478144881188374 -0.03442488160709226  0.
0.025608427528330438 -0.032053421906967174  0.
0.020897068968462978 -0.03002111987297131  0.
0.01631488190709113 -0.028330924335733237  0.
0.011832115340245192 -0.026983313384895683  0.
0.0074194670758385125 -0.02597764402447432  0.
0.0030484214784476478 -0.025313203475471578  0.
-0.0013088505664499426 -0.024989892318171048  0.
-0.005679835148058277 -0.025008594521772388  0.
-0.010092042471139645 -0.025371299719182155  0.
-0.014573421283351207 -0.026081007184102247  0.
-0.01915266889186228 -0.0271414310339102  0.
-0.02385940904218844 -0.028556502141847455  0.
-0.028724075427802292 -0.030329641784759245  0.
-0.033777381764281474 -0.03246281689891909  0.
-0.03904897739920051 -0.034955382139935556  0.
-0.04456481932033989 -0.03780287795129986  0.
-0.050342277166117624 -0.04099618449962438  0.
-0.05638156905345642 -0.044522129927340524  0.
-0.0626520340101874 -0.04836810365119755  0.
0.07045510582581065 -0.06163153548682677  0.
0.06396707248710813 -0.057518768239779125  0.
0.05762978039091101 -0.053665103726668516  0.
0.051472240440011134 -0.05007856178350546  0.
0.045509566433886615 -0.04677291722610509  0.
0.03974392588259737 -0.04376366515276192  0.
0.03416661791246505 -0.04106510759324705  0.
0.028760835784129184 -0.03868881974642536  0.
0.023504262879340716 -0.03664313511903811  0.
0.018371276498084857 -0.03493341335906048  0.
0.013334642714665803 -0.03356276616421417  0.
0.008366553935083527 -0.03253289425854074  0.
0.0034391860706063223 -0.03184485883732431  0.
-0.0014751233245592424 -0.03149965748040487  0.
-0.0064039606138620005 -0.03149857559801763  0.
-0.011374969894076766 -0.03184333172955964  0.
-0.016416063476686442 -0.03253602815659114  0.
-0.021555534027007016 -0.03357892827001396  0.
-0.026822038788600063 -0.034974070673385454  0.
-0.03224429122293583 -0.03672272177261328  0.
-0.03785037569004954 -0.03882471519014995  0.
-0.04366634974066686 -0.04127773368622278  0.
-0.04971385792994982 -0.0440767531528484  0.
-0.05600619326506614 -0.04721405316095686  0.
-0.06254235185581304 -0.050680686444792886  0.
-0.06929944167630671 -0.05447104923450797  0.
0.07694885032686699 -0.06866553203466139  0.
0.07000437355377556 -0.06456530999741047  0.
0.06321018037885569 -0.060732007987441064  0.
0.056585817382175364 -0.057169707339275164  0.
0.05014151579027615 -0.05388777971736077  0.
0.04387815484664951 -0.05089800393429032  0.
0.03778816032816323 -0.048212262640085934  0.
0.03185718281619013 -0.04584114745055442  0.
0.026065810895540116 -0.04379324376960774  0.
0.020391160081097415 -0.04207500708504723  0.
0.014808229359750465 -0.04069104618756499  0.
0.00929082527838883 -0.0396445732569304  0.
0.003812174396395496 -0.03893790115849964  0.
-0.0016547510027834901 -0.03857286327397713  0.
-0.0071371413298638685 -0.03855109925669131  0.
-0.01266229966519695 -0.03887419370563466  0.
-0.018257686176528877 -0.03954366074303467  0.
-0.023950873613074953 -0.040560792163098415  0.
-0.029769394183347998 -0.04192638535186735  0.
-0.03574032134617731 -0.04364036752149792  0.
-0.04188954618917384 -0.04570138404667311  0.
-0.048240482058246145 -0.04810642627313474  0.
-0.05481209190045897 -0.05085071886133001  0.
-0.06161598273184315 -0.05392820607736247  0.
-0.06865267573096408 -0.05733327264974121  0.
-0.07590815230888384 -0.061064618856323104  0.
0.08337866087093963 -0.07620371161204033  0.
0.07596721562664051 -0.07211766531958687  0.
0.06870834048637496 -0.06830409213240311  0.
0.061613711662707044 -0.06476484095502155  0.
0.05468887150593437 -0.061506326065766045  0.
0.047932696430172415 -0.05853750934382535  0.
0.041337581176892395 -0.05586812637648383  0.
0.03489040307658583 -0.053507508466522656  0.
0.028573605432597498 -0.051463841087336475  0.
0.02236630623346034 -0.04974385478415043  0.
0.01624534760306576 -0.048352848757490303  0.
0.010186062432287169 -0.04729487841680474  0.
0.004162858514212537 -0.046573035539925645  0.
-0.0018503975939905093 -0.046189718483326675  0.
-0.007880186210282192 -0.046146835781241465  0.
-0.013953156599775864 -0.046445919247358934  0.
-0.020096050588991412 -0.0470881278075529  0.
-0.026335545485941806 -0.048074154808008834  0.
-0.03269801431354798 -0.049404055774342155  0.
-0.03920906065665174 -0.051077018838001566  0.
-0.04589283284597929 -0.05309115104671311  0.
-0.05277091041596918 -0.05544335534315742  0.
-0.0598607881542566 -0.058129491872464974  0.
-0.06717389507882805 -0.061145074636964517  0.
-0.07471352647806928 -0.06448690865434349  0.
-0.08247390520471189 -0.06815609486160659  0.
0.08973657892953561 -0.08425123465671927  0.
0.08185202084496145 -0.08018070603432363  0.
0.0741234669282462 -0.07638637695772994  0.
0.06655623439586865 -0.0728689010745363  0.
0.05915167754931439 -0.06963273008450906  0.
0.05190645622192486 -0.06668472837785493  0.
0.04481230783915702 -0.06403282888051147  0.
0.03785655477051296 -0.061685080364461915  0.
0.031022748692599335 -0.05964896029050169  0.
0.0242914179771705 -0.05793099642233539  0.
0.017640862296481236 -0.05653664915147213  0.
0.011047760810292127 -0.055470332967929505  0.
0.0044876915832885176 -0.05473554191177884  0.
-0.0020644795529373124 -0.054334999297277815  0.
-0.008634357007680313 -0.05427078457065195  0.
-0.01524775927172031 -0.05454441403117832  0.
-0.021930565307434563 -0.05515685234540915  0.
-0.02870848593735178 -0.0561084643042923  0.
-0.03560677950116164 -0.057398921934832904  0.
-0.04264978430470051 -0.05902708895138686  0.
-0.0498603136043656 -0.060990952192598306  0.
-0.057258749959475594 -0.06328766287872102  0.
-0.06486195402335493 -0.06591384428369362  0.
-0.07268202433982442 -0.06886633128161847  0.
-0.08072536773706905 -0.07214357021630761  0.
-0.08899312818506394 -0.07574780799605264  0.
0.09601594127921867 -0.09280959873201793  0.
0.08765532043388118 -0.08875560275327399  0.
0.07945439454354224 -0.0849800891635738  0.
0.07141343749916707 -0.08148313426844633  0.
0.0635302173875967 -0.07826790144409683  0.
0.055799234750887196 -0.0753397088692896  0.
0.04821127424041919 -0.0727050209097254  0.
0.040753630604362975 -0.07037069960286635  0.
0.03341045407017618 -0.06834340377067528  0.
0.026163233209627865 -0.06662920435939684  0.
0.01899138848539548 -0.06523339922131764  0.
0.011872738795558243 -0.06416043670104134  0.
0.004783945081908446 -0.06341393874391188  0.
-0.0022991243532190335 -0.06299676293895907  0.
-0.009401140803491937 -0.06291106762492249  0.
-0.016547018922262294 -0.06315836201950392  0.
-0.02376172230657754 -0.06373951844252364  0.
-0.031069997656743883 -0.06465475485399241  0.
-0.03849607813596032 -0.06590360016127952  0.
-0.04606324217879455 -0.06748486089508594  0.
-0.05379330802831732 -0.06939665052369937  0.
-0.06170592875641489 -0.0716365275158127  0.
-0.06981785795765967 -0.07420186106585851  0.
-0.07814225658752272 -0.07709051916837546  0.
-0.08668847909348273 -0.08030198601234793  0.
-0.09546313126137267 -0.0838388778194483  0.
0.10221119504045048 -0.10187772327138207  0.
0.09337389083311336 -0.09784096222724181  0.
0.08469975907877841 -0.09408383768950948  0.
0.07618512402721374 -0.09060620605932997  0.
0.06782476504667376 -0.08741039345593989  0.
0.05961121497284654 -0.08450058345960593  0.
0.051534209723748045 -0.08188206402288907  0.
0.0435807505624548 -0.07956065194348805  0.
0.03573525103916583 -0.07754218510103197  0.
0.027979830625827474 -0.07583216350030171  0.
0.02029475499865933 -0.07443554083013272  0.
0.012658783403131497 -0.0733565959549148  0.
0.005049538066914416 -0.072598893074302  0.
-0.002556167379458698 -0.07216528470932777  0.
-0.010182086218077308 -0.0720579317527594  0.
-0.017852229045878413 -0.07227832882565413  0.
-0.0255906559556163 -0.0728273139956092  0.
-0.0334211995191564 -0.07370507113885583  0.
-0.041367178568059194 -0.07491113475479232  0.
-0.049450999551942224 -0.07644441121056102  0.
-0.05769375316613129 -0.07830326754195285  0.
-0.06611468501259471 -0.08048571673020784  0.
-0.07473074002329759 -0.08298978537006205  0.
-0.08355624520618875 -0.0858141056982346  0.
-0.09260310247911849 -0.08895876324085565  0.
-0.1018820383739097 -0.09242629792166415  0.
0.10831776837211739 -0.11145277728332566  0.
0.0990048568117507 -0.10743367603228333  0.
0.08985815975158212 -0.10369448850678713  0.
0.08087093560600449 -0.10023504787873562  0.
0.07203551901349262 -0.09705714077144391  0.
0.06334272136021488 -0.09416411822846059  0.
0.054781248697291736 -0.0915603339044833  0.
0.046337677441449544 -0.08925070945630967  0.
0.03799647363362177 -0.0872403146640059  0.
0.0297401541216027 -0.08553404828437171  0.
0.021549613126998563 -0.08413643184191363  0.
0.013404372910180363 -0.08305145854316512  0.
0.005282886361251102 -0.08228251832338411  0.
-0.002837175922468082 -0.08183236405852841  0.
-0.010978707872696168 -0.08170310130477296  0.
-0.019164862327197194 -0.08189619560280897  0.
-0.027418848717733365 -0.08241247874766736  0.
-0.03576366290651396 -0.08325216289527865  0.
-0.044221825724481384 -0.08441486988618711  0.
-0.05281503373970392 -0.08589968503129768  0.
-0.06156385074695459 -0.08770527648818192  0.
-0.07048732195496625 -0.08983009391505278  0.
-0.07960272324349849 -0.09227270607055735  0.
-0.08892548353936366 -0.09503228338270091  0.
-0.09846957513763112 -0.09810921454437603  0.
-0.10824872016507825 -0.10150573503269979  0.
0.11433190548388426 -0.12153071088237567  0.
0.10454569922323617 -0.11752946009870488  0.
0.09492823400997155 -0.11380772108334183  0.
0.08547040400675202 -0.11036540287463509  0.
0.07616257089235827 -0.10720394616621487  0.
0.0669940807885929 -0.10432608840429965  0.
0.05795268994176942 -0.10173544334716103  0.
0.04902450317121275 -0.09943617838354145  0.
0.04019391427178164 -0.09743267217783436  0.
0.0314436765521762 -0.09572923942595155  0.
0.022755147040514175 -0.09432994046720596  0.
0.014108460544163669 -0.09323842584518005  0.
0.005482774838087302 -0.09245784499829035  0.
-0.003143483082553071 -0.09199079188063243  0.
-0.0117924292111791 -0.09183927600600536  0.
-0.020486431191887994 -0.09200471774017582  0.
-0.02924792344123086 -0.0924879512689808  0.
-0.038099155060543566 -0.09328924478573371  0.
-0.04706196077069097 -0.09440834309277028  0.
-0.05615746153362205 -0.09584453759283872  0.
-0.06540583866360772 -0.09759679596062604  0.
-0.07482605901844687 -0.09966395296447637  0.
-0.08443576641648438 -0.10204500273829457  0.
-0.09425134298014497 -0.10473947618112553  0.
-0.10428836519146598 -0.10774787275659839  0.
-0.11456265809462853 -0.11107203098391817  0.
0.12025051803583435 -0.13210661718184533  0.
0.1099942320925393 -0.1281232169994097  0.
0.09990869673826837 -0.1244184010058309  0.
0.08998299217112447 -0.12099219529151266  0.
0.0802059040437133 -0.11784581818897474  0.
0.07056555565330325 -0.11498155075493557  0.
0.06104886151225661 -0.11240241983190523  0.
0.05164145898652488 -0.11011196274402385  0.
0.04232760283589521 -0.10811395065693612  0.
0.033090175270308185 -0.10641215598169855  0.
0.02391087193018777 -0.105010184099259  0.
0.01477031626262751 -0.10391132418781551  0.
0.005648256868130524 -0.10311845362573614  0.
-0.003476223978997678 -0.10263397416273566  0.
-0.01262455442324477 -0.10245977276694002  0.
-0.021818401306564466 -0.10259720969534802  0.
-0.031079509360047046 -0.10304711869617457  0.
-0.04042947315740495 -0.10380982945719375  0.
-0.04988954317160304 -0.10488521555391775  0.
-0.05948037269288288 -0.10627276931938288  0.
-0.06922186055885934 -0.10797172864864639  0.
-0.07913295808088051 -0.10998124818647387  0.
-0.08923165328002323 -0.11230064184289923  0.
-0.09953510148357736 -0.11492966801392002  0.
-0.11006007082462445 -0.11786882077972502  0.
-0.12082380812883071 -0.12111952911116675  0.
0.12607109299782088 -0.14317505062221403  0.
0.11534859893810762 -0.13920934940751004  0.
0.1047983870839574 -0.13552089845448465  0.
0.09440815165858236 -0.13210984851043894  0.
0.08416542954622923 -0.12897727240313636  0.
0.07405733877247249 -0.12612510675708483  0.
0.06407006830820888 -0.1235559102398036  0.
0.054188820795478154 -0.12127269562447707  0.
0.04439768298528588 -0.11927870742939077  0.
0.03467959666116625 -0.11757722810579502  0.
0.025016504561089094 -0.11617143381208975  0.
0.015389418802953385 -0.11506425714173009  0.
0.005778579188592794 -0.1142582945797126  0.
-0.003836371760205376 -0.11375574051107191  0.
-0.013476264168582846 -0.11355834373264198  0.
-0.023162150664151872 -0.11366739180208779  0.
-0.032915172505469506 -0.11408370905914429  0.
-0.04275635777654187 -0.11480767886579875  0.
-0.05270646198702076 -0.11583929162870801  0.
-0.06278575558978379 -0.11717821725697886  0.
-0.07301392160443078 -0.11882392138560735  0.
-0.08340991986796611 -0.12077581168303637  0.
-0.09399202749312502 -0.12303343259727283  0.
-0.10477799342918771 -0.12559667450269743  0.
-0.11578543433639428 -0.12846596212780537  0.
-0.12703251522034686 -0.13164234505675015  0.
0.13179154644255567 -0.15473012769954259  0.
0.12060719615519605 -0.1507818576907968  0.
0.1095962387937202 -0.14710918914297055  0.
0.098745313822286 -0.14371238708281053  0.
0.08804097531722599 -0.14059242501135166  0.
0.07746952477049956 -0.13775097433369773  0.
0.06701653857455686 -0.13519021686782784  0.
0.05666683154979766 -0.1329127283720954  0.
0.04640431720182575 -0.13092130023068113  0.
0.036211954332595844 -0.12921877953053587  0.
0.0260718663246756 -0.1278079483432919  0.
0.01596537448521891 -0.12669140081287641  0.
0.005873124984040305 -0.12587145777580308  0.
-0.004224765012145822 -0.12535010309346903  0.
-0.014348611933354873 -0.1251289396450928  0.
-0.024518937026035068 -0.12520917235193846  0.
-0.03475635975230428 -0.12559160452120602  0.
-0.04508142192000368 -0.12627665838025795  0.
-0.055514460247996264 -0.12726441992719484  0.
-0.06607542797009947 -0.12855470473587038  0.
-0.0767838350410917 -0.13014715979601113  0.
-0.08765865048465041 -0.13204138395515297  0.
-0.09871837335927065 -0.13423708023231898  0.
-0.10998118402460726 -0.13673420491137306  0.
-0.12146527469944851 -0.13953308358393413  0.
-0.13318936644041038 -0.14263443618099023  0.
0.13741016223275768 -0.16676569484241724  0.
0.1257686576076736 -0.16283450169639024  0.
0.1143012984109572 -0.15917701680018828  0.
0.10299392439907197 -0.1557936001598869  0.
0.09183232079361794 -0.15268515228688523  0.
0.08080213256780086 -0.14985313507301365  0.
0.06988842730959663 -0.14729942327666476  0.
0.05907568406439493 -0.1450262271018431  0.
0.048347651959706715 -0.14303594917720677  0.
0.03768728257633172 -0.1413310534719067  0.
0.027076832345375643 -0.13991396623890187  0.
0.016497869257842298 -0.13878696797318013  0.
0.005931374917277749 -0.13795211716840716  0.
-0.004642133766177907 -0.13741119150474393  0.
-0.015242535621473728 -0.13716564564257258  0.
-0.025889896277931895 -0.13721659446371526  0.
-0.03660438758092039 -0.1375648081345007  0.
-0.04740613582749263 -0.13821073012446775  0.
-0.05831512269071026 -0.13915451711479548  0.
-0.06935103444567237 -0.140396096086947  0.
-0.08053323436986079 -0.14193525061072657  0.
-0.09188068875756979 -0.1437717169689829  0.
-0.10341205130906853 -0.1459053007135803  0.
-0.11514579638056056 -0.1483359800366816  0.
-0.1271004823738988 -0.15106397259789223  0.
-0.13929513272057825 -0.1540897243310111  0.
0.14292554938138294 -0.17927548192061807  0.
0.1308318448760549 -0.1753609481348545  0.
0.11891274119167584 -0.17171803980951117  0.
0.10715347419245853 -0.1683471888948965  0.
0.09553923098413938 -0.1652492364055449  0.
0.0840551334520114 -0.16242547358452125  0.
0.07268583231685731 -0.15987752119389748  0.
0.0614155226130153 -0.15760728155352932  0.
0.05022780561459585 -0.15561682353008688  0.
0.03910561364359163 -0.15390827553687883  0.
0.028031302550568626 -0.1524837457064036  0.
0.016986638263506614 -0.1513452280967004  0.
0.005952879305824991 -0.15049453619432046  0.
-0.00508912184488599 -0.14993325017543185  0.
-0.016158873209259097 -0.14966267777399986  0.
-0.027276051980310592 -0.1496838386627688  0.
-0.03846044780193451 -0.1499974585392896  0.
-0.04973183247290593 -0.15060398429705812  0.
-0.06110988527034516 -0.15150361824900538  0.
-0.07261406388840312 -0.15269636590327407  0.
-0.08426360066868385 -0.15418210717462869  0.
-0.09607744192520012 -0.15596067105312456  0.
-0.10807433513283049 -0.15803192318780818  0.
-0.12027293770212032 -0.1603958355190776  0.
-0.13269201861672156 -0.16305252096094214  0.
-0.1453507316433745 -0.16600220445412045  0.
0.148336513110569 -0.19225299546000185  0.
0.13579574992925336 -0.18835466286736724  0.
0.12342980160954381 -0.18472572427429831  0.
0.11122345045318327 -0.18136666080647604  0.
0.0991614208543094 -0.17827825974866987  0.
0.0872284214639961 -0.17546166873355817  0.
0.0754087655574888 -0.17291829480733695  0.
0.0636864125825838 -0.17064977860807723  0.
0.052044835941632374 -0.1686579014351238  0.
0.04046694452333823 -0.16694449809074224  0.
0.028935170168383453 -0.1655113936958426  0.
0.0174314389633554 -0.1643603229216947  0.
0.005937238573068251 -0.16349287302367854  0.
-0.005566297092261074 -0.16291043754661252  0.
-0.017098362703478566 -0.16261418084160734  0.
-0.02867830527360319 -0.16260502408476718  0.
-0.040325588727141565 -0.1628836386218788  0.
-0.052059682122991224 -0.16345045828057006  0.
-0.06390000549466024 -0.1643057078459029  0.
-0.07586581739332592 -0.16544944185122915  0.
-0.08797622847188086 -0.1668816021150582  0.
-0.10025014702519526 -0.16860207432279062  0.
-0.11270636295426667 -0.1706107528747314  0.
-0.125363630720798 -0.1729075863541697  0.
-0.13824081798233034 -0.17549259220323452  0.
-0.15135709588510488 -0.1783658217522025  0.
0.153642109911153 -0.2056918012186503  0.
0.14065956013314165 -0.20180918476673576  0.
0.1278518477004243 -0.19819361524123133  0.
0.11520341597032598 -0.194845600880199  0.
0.10269863356063039 -0.19176587614920754  0.
0.09032188546753486 -0.18895546366448177  0.
0.07805721487755027 -0.18641558723618504  0.
0.06588838921062729 -0.1841476626118201  0.
0.053798774792401007 -0.1821532218489516  0.
0.04177125774446706 -0.18043384232942988  0.
0.029788329818650632 -0.17899109771675714  0.
0.01783204811916289 -0.17782648872563284  0.
0.005884090742060975 -0.17694139500656952  0.
-0.006074172094609066 -0.17633703514839696  0.
-0.018061670398581642 -0.1760144349718317  0.
-0.030097470694594154 -0.17597441540625067  0.
-0.042200759214669196 -0.17621758528190212  0.
-0.05439074569927643 -0.1767443509747825  0.
-0.06668662619857271 -0.17755493948961054  0.
-0.07910748298511788 -0.17864942911978807  0.
-0.09167231064770621 -0.18002779513912773  0.
-0.10439996323488222 -0.18168995166705082  0.
-0.1173092320886996 -0.18363579914471473  0.
-0.13041890452981594 -0.18586525300119708  0.
-0.14374786910514623 -0.18837824663285832  0.
-0.15731524413439144 -0.19117469697739528  0.
0.15884150646270545 -0.21958529292822337  0.
0.14542254010840475 -0.21571789664256752  0.
0.13217828438529391 -0.2121151084322504  0.
0.11909293158659062 -0.20877744446741892  0.
0.10615057851454573 -0.20570558472562875  0.
0.0933353589511609 -0.202900439615693  0.
0.08063110229755463 -0.20036307282839186  0.
0.06802142205890944 -0.1980947044481486  0.
0.05548959750387813 -0.19609664883470312  0.
0.043018495425243594 -0.19437025671446936  0.
0.030590656627483816 -0.192916877992428  0.